
     Program PWSCF v.7.2 starts on 28Mar2025 at 20:30:25 

     This program is part of the open-source Quantum ESPRESSO suite
     for quantum simulation of materials; please cite
         "P. Giannozzi et al., J. Phys.:Condens. Matter 21 395502 (2009);
         "P. Giannozzi et al., J. Phys.:Condens. Matter 29 465901 (2017);
         "P. Giannozzi et al., J. Chem. Phys. 152 154105 (2020);
          URL http://www.quantum-espresso.org", 
     in publications or presentations arising from this work. More details at
     http://www.quantum-espresso.org/quote

     Parallel version (MPI & OpenMP), running on      32 processor cores
     Number of MPI processes:                 4
     Threads/MPI process:                     8

     MPI processes distributed on     1 nodes
     502996 MiB available memory on the printing compute node when the environment starts
 
     Reading input from kpoints_12x36-nbnds_600.in

     Current dimensions of program PWSCF are:
     Max number of different atomic species (ntypx) = 10
     Max number of k-points (npk) =  40000
     Max angular momentum in pseudopotentials (lmaxx) =  4

     Atomic positions and unit cell read from directory:
     ./kpoints_12x36-nbnds_600.save/
     Atomic positions from file used, from input discarded
 
     Message from routine setup:
     using ibrav=0 with symmetry is DISCOURAGED, use correct ibrav instead
 
     R & G space division:  proc/nbgrp/npool/nimage =       4
     Subspace diagonalization in iterative solution of the eigenvalue problem:
     a serial algorithm will be used

 
     Parallelization info
     --------------------
     sticks:   dense  smooth     PW     G-vecs:    dense   smooth      PW
     Min        1228    1228    338                98938    98938   14251
     Max        1229    1229    339                98943    98943   14253
     Sum        4915    4915   1355               395763   395763   57009
 
     Using Slab Decomposition
 


     bravais-lattice index     =            0
     lattice parameter (alat)  =      27.3406  a.u.
     unit-cell volume          =    5001.2939 (a.u.)^3
     number of atoms/cell      =           26
     number of atomic types    =            2
     number of electrons       =        98.00
     number of Kohn-Sham states=          600
     kinetic-energy cutoff     =      70.0000  Ry
     charge density cutoff     =     280.0000  Ry
     Exchange-correlation= PBE
                           (   1   4   3   4   0   0   0)

     GPU acceleration is ACTIVE.
     GPU-aware MPI enabled


     GPU used by master process:

        Device Number: 0
        Device name: NVIDIA A100-SXM-64GB
        Compute capability : 80
        Ratio of single to double precision performance  : 2
        Memory Clock Rate (KHz): 1593000
        Memory Bus Width (bits): 4096
        Peak Memory Bandwidth (GB/s): ******

     celldm(1)=  27.340634  celldm(2)=   0.000000  celldm(3)=   0.000000
     celldm(4)=   0.000000  celldm(5)=   0.000000  celldm(6)=   0.000000

     crystal axes: (cart. coord. in units of alat)
               a(1) = (   1.000000   0.000000   0.000000 )  
               a(2) = (   0.000000   0.295043   0.000000 )  
               a(3) = (   0.000000   0.000000   0.829414 )  

     reciprocal axes: (cart. coord. in units 2 pi/alat)
               b(1) = (  1.000000  0.000000  0.000000 )  
               b(2) = (  0.000000  3.389338  0.000000 )  
               b(3) = (  0.000000  0.000000  1.205670 )  


     PseudoPot. # 1 for C  read from file:
     ../../pseudos/C_ONCV_PBE.upf
     MD5 check sum: 34a24e64c0a39f27c6c36b90a16ac686
     Pseudo is Norm-conserving + core correction, Zval =  4.0
     Generated using ONCVPSP code by D. R. Hamann
     Using radial grid of 1248 points,  4 beta functions with: 
                l(1) =   0
                l(2) =   0
                l(3) =   1
                l(4) =   1

     PseudoPot. # 2 for H  read from file:
     ../../pseudos/H_ONCV_PBE.upf
     MD5 check sum: e96aa7e3e4a958db16958554ea960e2a
     Pseudo is Norm-conserving, Zval =  1.0
     Generated using ONCVPSP code by D. R. Hamann
     Using radial grid of 1166 points,  3 beta functions with: 
                l(1) =   0
                l(2) =   0
                l(3) =   1

     atomic species   valence    mass     pseudopotential
        C              4.00    12.01100     C ( 1.00)
        H              1.00     1.00000     H ( 1.00)

      2 Sym. Ops. (no inversion) found


                                    s                        frac. trans.

      isym =  1     identity                                     

 cryst.   s( 1) = (     1          0          0      )
                  (     0          1          0      )
                  (     0          0          1      )

 cart.    s( 1) = (  1.0000000  0.0000000  0.0000000 )
                  (  0.0000000  1.0000000  0.0000000 )
                  (  0.0000000  0.0000000  1.0000000 )


      isym =  2     inv. 180 deg rotation - cart. axis [0,1,0]   

 cryst.   s( 2) = (     1          0          0      )
                  (     0         -1          0      )
                  (     0          0          1      )

 cart.    s( 2) = (  1.0000000  0.0000000  0.0000000 )
                  (  0.0000000 -1.0000000  0.0000000 )
                  (  0.0000000  0.0000000  1.0000000 )


   Cartesian axes

     site n.     atom                  positions (alat units)
         1           C   tau(   1) = (   0.4572795  -0.0478007   0.0348180  )
         2           C   tau(   2) = (   0.4572795   0.0478007   0.0348180  )
         3           C   tau(   3) = (   0.3778728  -0.0980531   0.0078824  )
         4           C   tau(   4) = (   0.3778728   0.0980531   0.0078824  )
         5           C   tau(   5) = (   0.2960839  -0.0491847  -0.0154660  )
         6           C   tau(   6) = (   0.2960839   0.0491847  -0.0154660  )
         7           C   tau(   7) = (   0.2123820  -0.0985337  -0.0328245  )
         8           C   tau(   8) = (   0.2123820   0.0985337  -0.0328245  )
         9           C   tau(   9) = (   0.1278393  -0.0491491  -0.0433766  )
        10           C   tau(  10) = (   0.1278393   0.0491491  -0.0433766  )
        11           C   tau(  11) = (   0.0427283  -0.0983338  -0.0467467  )
        12           C   tau(  12) = (   0.0427283   0.0983338  -0.0467467  )
        13           C   tau(  13) = (  -0.0424186  -0.0491481  -0.0433754  )
        14           C   tau(  14) = (  -0.0424186   0.0491481  -0.0433754  )
        15           C   tau(  15) = (  -0.1269419  -0.0985290  -0.0328256  )
        16           C   tau(  16) = (  -0.1269419   0.0985290  -0.0328256  )
        17           C   tau(  17) = (  -0.2106407  -0.0491894  -0.0154670  )
        18           C   tau(  18) = (  -0.2106407   0.0491894  -0.0154670  )
        19           C   tau(  19) = (  -0.2924501  -0.0980488   0.0078868  )
        20           C   tau(  20) = (  -0.2924501   0.0980488   0.0078868  )
        21           C   tau(  21) = (  -0.3718332  -0.0478066   0.0348146  )
        22           C   tau(  22) = (  -0.3718332   0.0478066   0.0348146  )
        23           C   tau(  23) = (  -0.4572839  -0.0941948   0.0734177  )
        24           C   tau(  24) = (  -0.4572839   0.0941948   0.0734177  )
        25           H   tau(  25) = (  -0.4572822   0.0732439   0.1472922  )
        26           H   tau(  26) = (  -0.4572822  -0.0732439   0.1472922  )

   Crystallographic axes

     site n.     atom                  positions (cryst. coord.)
         1           C   tau(   1) = (  0.4572795 -0.1620126  0.0419791  )
         2           C   tau(   2) = (  0.4572795  0.1620126  0.0419791  )
         3           C   tau(   3) = (  0.3778728 -0.3323352  0.0095035  )
         4           C   tau(   4) = (  0.3778728  0.3323352  0.0095035  )
         5           C   tau(   5) = (  0.2960839 -0.1667037 -0.0186469  )
         6           C   tau(   6) = (  0.2960839  0.1667037 -0.0186469  )
         7           C   tau(   7) = (  0.2123820 -0.3339641 -0.0395755  )
         8           C   tau(   8) = (  0.2123820  0.3339641 -0.0395755  )
         9           C   tau(   9) = (  0.1278393 -0.1665831 -0.0522979  )
        10           C   tau(  10) = (  0.1278393  0.1665831 -0.0522979  )
        11           C   tau(  11) = (  0.0427283 -0.3332865 -0.0563611  )
        12           C   tau(  12) = (  0.0427283  0.3332865 -0.0563611  )
        13           C   tau(  13) = ( -0.0424186 -0.1665795 -0.0522965  )
        14           C   tau(  14) = ( -0.0424186  0.1665795 -0.0522965  )
        15           C   tau(  15) = ( -0.1269419 -0.3339482 -0.0395769  )
        16           C   tau(  16) = ( -0.1269419  0.3339482 -0.0395769  )
        17           C   tau(  17) = ( -0.2106407 -0.1667194 -0.0186481  )
        18           C   tau(  18) = ( -0.2106407  0.1667194 -0.0186481  )
        19           C   tau(  19) = ( -0.2924501 -0.3323207  0.0095089  )
        20           C   tau(  20) = ( -0.2924501  0.3323207  0.0095089  )
        21           C   tau(  21) = ( -0.3718332 -0.1620327  0.0419749  )
        22           C   tau(  22) = ( -0.3718332  0.1620327  0.0419749  )
        23           C   tau(  23) = ( -0.4572839 -0.3192581  0.0885175  )
        24           C   tau(  24) = ( -0.4572839  0.3192581  0.0885175  )
        25           H   tau(  25) = ( -0.4572822  0.2482484  0.1775858  )
        26           H   tau(  26) = ( -0.4572822 -0.2482484  0.1775858  )

     number of k points=   133
                       cart. coord. in units 2pi/alat
        k(    1) = (   0.0000000   0.0000000   0.0000000), wk =   0.0046296
        k(    2) = (   0.0000000   0.0941483   0.0000000), wk =   0.0092593
        k(    3) = (   0.0000000   0.1882966   0.0000000), wk =   0.0092593
        k(    4) = (   0.0000000   0.2824448   0.0000000), wk =   0.0092593
        k(    5) = (   0.0000000   0.3765931   0.0000000), wk =   0.0092593
        k(    6) = (   0.0000000   0.4707414   0.0000000), wk =   0.0092593
        k(    7) = (   0.0000000   0.5648897   0.0000000), wk =   0.0092593
        k(    8) = (   0.0000000   0.6590380   0.0000000), wk =   0.0092593
        k(    9) = (   0.0000000   0.7531862   0.0000000), wk =   0.0092593
        k(   10) = (   0.0000000   0.8473345   0.0000000), wk =   0.0092593
        k(   11) = (   0.0000000   0.9414828   0.0000000), wk =   0.0092593
        k(   12) = (   0.0000000   1.0356311   0.0000000), wk =   0.0092593
        k(   13) = (   0.0000000   1.1297794   0.0000000), wk =   0.0092593
        k(   14) = (   0.0000000   1.2239276   0.0000000), wk =   0.0092593
        k(   15) = (   0.0000000   1.3180759   0.0000000), wk =   0.0092593
        k(   16) = (   0.0000000   1.4122242   0.0000000), wk =   0.0092593
        k(   17) = (   0.0000000   1.5063725   0.0000000), wk =   0.0092593
        k(   18) = (   0.0000000   1.6005208   0.0000000), wk =   0.0092593
        k(   19) = (   0.0000000  -1.6946691   0.0000000), wk =   0.0046296
        k(   20) = (   0.0833333   0.0000000   0.0000000), wk =   0.0092593
        k(   21) = (   0.0833333   0.0941483   0.0000000), wk =   0.0185185
        k(   22) = (   0.0833333   0.1882966   0.0000000), wk =   0.0185185
        k(   23) = (   0.0833333   0.2824448   0.0000000), wk =   0.0185185
        k(   24) = (   0.0833333   0.3765931   0.0000000), wk =   0.0185185
        k(   25) = (   0.0833333   0.4707414   0.0000000), wk =   0.0185185
        k(   26) = (   0.0833333   0.5648897   0.0000000), wk =   0.0185185
        k(   27) = (   0.0833333   0.6590380   0.0000000), wk =   0.0185185
        k(   28) = (   0.0833333   0.7531862   0.0000000), wk =   0.0185185
        k(   29) = (   0.0833333   0.8473345   0.0000000), wk =   0.0185185
        k(   30) = (   0.0833333   0.9414828   0.0000000), wk =   0.0185185
        k(   31) = (   0.0833333   1.0356311   0.0000000), wk =   0.0185185
        k(   32) = (   0.0833333   1.1297794   0.0000000), wk =   0.0185185
        k(   33) = (   0.0833333   1.2239276   0.0000000), wk =   0.0185185
        k(   34) = (   0.0833333   1.3180759   0.0000000), wk =   0.0185185
        k(   35) = (   0.0833333   1.4122242   0.0000000), wk =   0.0185185
        k(   36) = (   0.0833333   1.5063725   0.0000000), wk =   0.0185185
        k(   37) = (   0.0833333   1.6005208   0.0000000), wk =   0.0185185
        k(   38) = (   0.0833333  -1.6946691   0.0000000), wk =   0.0092593
        k(   39) = (   0.1666667   0.0000000   0.0000000), wk =   0.0092593
        k(   40) = (   0.1666667   0.0941483   0.0000000), wk =   0.0185185
        k(   41) = (   0.1666667   0.1882966   0.0000000), wk =   0.0185185
        k(   42) = (   0.1666667   0.2824448   0.0000000), wk =   0.0185185
        k(   43) = (   0.1666667   0.3765931   0.0000000), wk =   0.0185185
        k(   44) = (   0.1666667   0.4707414   0.0000000), wk =   0.0185185
        k(   45) = (   0.1666667   0.5648897   0.0000000), wk =   0.0185185
        k(   46) = (   0.1666667   0.6590380   0.0000000), wk =   0.0185185
        k(   47) = (   0.1666667   0.7531862   0.0000000), wk =   0.0185185
        k(   48) = (   0.1666667   0.8473345   0.0000000), wk =   0.0185185
        k(   49) = (   0.1666667   0.9414828   0.0000000), wk =   0.0185185
        k(   50) = (   0.1666667   1.0356311   0.0000000), wk =   0.0185185
        k(   51) = (   0.1666667   1.1297794   0.0000000), wk =   0.0185185
        k(   52) = (   0.1666667   1.2239276   0.0000000), wk =   0.0185185
        k(   53) = (   0.1666667   1.3180759   0.0000000), wk =   0.0185185
        k(   54) = (   0.1666667   1.4122242   0.0000000), wk =   0.0185185
        k(   55) = (   0.1666667   1.5063725   0.0000000), wk =   0.0185185
        k(   56) = (   0.1666667   1.6005208   0.0000000), wk =   0.0185185
        k(   57) = (   0.1666667  -1.6946691   0.0000000), wk =   0.0092593
        k(   58) = (   0.2500000   0.0000000   0.0000000), wk =   0.0092593
        k(   59) = (   0.2500000   0.0941483   0.0000000), wk =   0.0185185
        k(   60) = (   0.2500000   0.1882966   0.0000000), wk =   0.0185185
        k(   61) = (   0.2500000   0.2824448   0.0000000), wk =   0.0185185
        k(   62) = (   0.2500000   0.3765931   0.0000000), wk =   0.0185185
        k(   63) = (   0.2500000   0.4707414   0.0000000), wk =   0.0185185
        k(   64) = (   0.2500000   0.5648897   0.0000000), wk =   0.0185185
        k(   65) = (   0.2500000   0.6590380   0.0000000), wk =   0.0185185
        k(   66) = (   0.2500000   0.7531862   0.0000000), wk =   0.0185185
        k(   67) = (   0.2500000   0.8473345   0.0000000), wk =   0.0185185
        k(   68) = (   0.2500000   0.9414828   0.0000000), wk =   0.0185185
        k(   69) = (   0.2500000   1.0356311   0.0000000), wk =   0.0185185
        k(   70) = (   0.2500000   1.1297794   0.0000000), wk =   0.0185185
        k(   71) = (   0.2500000   1.2239276   0.0000000), wk =   0.0185185
        k(   72) = (   0.2500000   1.3180759   0.0000000), wk =   0.0185185
        k(   73) = (   0.2500000   1.4122242   0.0000000), wk =   0.0185185
        k(   74) = (   0.2500000   1.5063725   0.0000000), wk =   0.0185185
        k(   75) = (   0.2500000   1.6005208   0.0000000), wk =   0.0185185
        k(   76) = (   0.2500000  -1.6946691   0.0000000), wk =   0.0092593
        k(   77) = (   0.3333333   0.0000000   0.0000000), wk =   0.0092593
        k(   78) = (   0.3333333   0.0941483   0.0000000), wk =   0.0185185
        k(   79) = (   0.3333333   0.1882966   0.0000000), wk =   0.0185185
        k(   80) = (   0.3333333   0.2824448   0.0000000), wk =   0.0185185
        k(   81) = (   0.3333333   0.3765931   0.0000000), wk =   0.0185185
        k(   82) = (   0.3333333   0.4707414   0.0000000), wk =   0.0185185
        k(   83) = (   0.3333333   0.5648897   0.0000000), wk =   0.0185185
        k(   84) = (   0.3333333   0.6590380   0.0000000), wk =   0.0185185
        k(   85) = (   0.3333333   0.7531862   0.0000000), wk =   0.0185185
        k(   86) = (   0.3333333   0.8473345   0.0000000), wk =   0.0185185
        k(   87) = (   0.3333333   0.9414828   0.0000000), wk =   0.0185185
        k(   88) = (   0.3333333   1.0356311   0.0000000), wk =   0.0185185
        k(   89) = (   0.3333333   1.1297794   0.0000000), wk =   0.0185185
        k(   90) = (   0.3333333   1.2239276   0.0000000), wk =   0.0185185
        k(   91) = (   0.3333333   1.3180759   0.0000000), wk =   0.0185185
        k(   92) = (   0.3333333   1.4122242   0.0000000), wk =   0.0185185
        k(   93) = (   0.3333333   1.5063725   0.0000000), wk =   0.0185185
        k(   94) = (   0.3333333   1.6005208   0.0000000), wk =   0.0185185
        k(   95) = (   0.3333333  -1.6946691   0.0000000), wk =   0.0092593
        k(   96) = (   0.4166667   0.0000000   0.0000000), wk =   0.0092593
        k(   97) = (   0.4166667   0.0941483   0.0000000), wk =   0.0185185
        k(   98) = (   0.4166667   0.1882966   0.0000000), wk =   0.0185185
        k(   99) = (   0.4166667   0.2824448   0.0000000), wk =   0.0185185
        k(  100) = (   0.4166667   0.3765931   0.0000000), wk =   0.0185185
        k(  101) = (   0.4166667   0.4707414   0.0000000), wk =   0.0185185
        k(  102) = (   0.4166667   0.5648897   0.0000000), wk =   0.0185185
        k(  103) = (   0.4166667   0.6590380   0.0000000), wk =   0.0185185
        k(  104) = (   0.4166667   0.7531862   0.0000000), wk =   0.0185185
        k(  105) = (   0.4166667   0.8473345   0.0000000), wk =   0.0185185
        k(  106) = (   0.4166667   0.9414828   0.0000000), wk =   0.0185185
        k(  107) = (   0.4166667   1.0356311   0.0000000), wk =   0.0185185
        k(  108) = (   0.4166667   1.1297794   0.0000000), wk =   0.0185185
        k(  109) = (   0.4166667   1.2239276   0.0000000), wk =   0.0185185
        k(  110) = (   0.4166667   1.3180759   0.0000000), wk =   0.0185185
        k(  111) = (   0.4166667   1.4122242   0.0000000), wk =   0.0185185
        k(  112) = (   0.4166667   1.5063725   0.0000000), wk =   0.0185185
        k(  113) = (   0.4166667   1.6005208   0.0000000), wk =   0.0185185
        k(  114) = (   0.4166667  -1.6946691   0.0000000), wk =   0.0092593
        k(  115) = (  -0.5000000   0.0000000   0.0000000), wk =   0.0046296
        k(  116) = (  -0.5000000   0.0941483   0.0000000), wk =   0.0092593
        k(  117) = (  -0.5000000   0.1882966   0.0000000), wk =   0.0092593
        k(  118) = (  -0.5000000   0.2824448   0.0000000), wk =   0.0092593
        k(  119) = (  -0.5000000   0.3765931   0.0000000), wk =   0.0092593
        k(  120) = (  -0.5000000   0.4707414   0.0000000), wk =   0.0092593
        k(  121) = (  -0.5000000   0.5648897   0.0000000), wk =   0.0092593
        k(  122) = (  -0.5000000   0.6590380   0.0000000), wk =   0.0092593
        k(  123) = (  -0.5000000   0.7531862   0.0000000), wk =   0.0092593
        k(  124) = (  -0.5000000   0.8473345   0.0000000), wk =   0.0092593
        k(  125) = (  -0.5000000   0.9414828   0.0000000), wk =   0.0092593
        k(  126) = (  -0.5000000   1.0356311   0.0000000), wk =   0.0092593
        k(  127) = (  -0.5000000   1.1297794   0.0000000), wk =   0.0092593
        k(  128) = (  -0.5000000   1.2239276   0.0000000), wk =   0.0092593
        k(  129) = (  -0.5000000   1.3180759   0.0000000), wk =   0.0092593
        k(  130) = (  -0.5000000   1.4122242   0.0000000), wk =   0.0092593
        k(  131) = (  -0.5000000   1.5063725   0.0000000), wk =   0.0092593
        k(  132) = (  -0.5000000   1.6005208   0.0000000), wk =   0.0092593
        k(  133) = (  -0.5000000  -1.6946691   0.0000000), wk =   0.0046296

                       cryst. coord.
        k(    1) = (   0.0000000   0.0000000   0.0000000), wk =   0.0046296
        k(    2) = (   0.0000000   0.0277778   0.0000000), wk =   0.0092593
        k(    3) = (   0.0000000   0.0555556   0.0000000), wk =   0.0092593
        k(    4) = (   0.0000000   0.0833333   0.0000000), wk =   0.0092593
        k(    5) = (   0.0000000   0.1111111   0.0000000), wk =   0.0092593
        k(    6) = (   0.0000000   0.1388889   0.0000000), wk =   0.0092593
        k(    7) = (   0.0000000   0.1666667   0.0000000), wk =   0.0092593
        k(    8) = (   0.0000000   0.1944444   0.0000000), wk =   0.0092593
        k(    9) = (   0.0000000   0.2222222   0.0000000), wk =   0.0092593
        k(   10) = (   0.0000000   0.2500000   0.0000000), wk =   0.0092593
        k(   11) = (   0.0000000   0.2777778   0.0000000), wk =   0.0092593
        k(   12) = (   0.0000000   0.3055556   0.0000000), wk =   0.0092593
        k(   13) = (   0.0000000   0.3333333   0.0000000), wk =   0.0092593
        k(   14) = (   0.0000000   0.3611111   0.0000000), wk =   0.0092593
        k(   15) = (   0.0000000   0.3888889   0.0000000), wk =   0.0092593
        k(   16) = (   0.0000000   0.4166667   0.0000000), wk =   0.0092593
        k(   17) = (   0.0000000   0.4444444   0.0000000), wk =   0.0092593
        k(   18) = (   0.0000000   0.4722222   0.0000000), wk =   0.0092593
        k(   19) = (   0.0000000  -0.5000000   0.0000000), wk =   0.0046296
        k(   20) = (   0.0833333   0.0000000   0.0000000), wk =   0.0092593
        k(   21) = (   0.0833333   0.0277778   0.0000000), wk =   0.0185185
        k(   22) = (   0.0833333   0.0555556   0.0000000), wk =   0.0185185
        k(   23) = (   0.0833333   0.0833333   0.0000000), wk =   0.0185185
        k(   24) = (   0.0833333   0.1111111   0.0000000), wk =   0.0185185
        k(   25) = (   0.0833333   0.1388889   0.0000000), wk =   0.0185185
        k(   26) = (   0.0833333   0.1666667   0.0000000), wk =   0.0185185
        k(   27) = (   0.0833333   0.1944444   0.0000000), wk =   0.0185185
        k(   28) = (   0.0833333   0.2222222   0.0000000), wk =   0.0185185
        k(   29) = (   0.0833333   0.2500000   0.0000000), wk =   0.0185185
        k(   30) = (   0.0833333   0.2777778   0.0000000), wk =   0.0185185
        k(   31) = (   0.0833333   0.3055556   0.0000000), wk =   0.0185185
        k(   32) = (   0.0833333   0.3333333   0.0000000), wk =   0.0185185
        k(   33) = (   0.0833333   0.3611111   0.0000000), wk =   0.0185185
        k(   34) = (   0.0833333   0.3888889   0.0000000), wk =   0.0185185
        k(   35) = (   0.0833333   0.4166667   0.0000000), wk =   0.0185185
        k(   36) = (   0.0833333   0.4444444   0.0000000), wk =   0.0185185
        k(   37) = (   0.0833333   0.4722222   0.0000000), wk =   0.0185185
        k(   38) = (   0.0833333  -0.5000000   0.0000000), wk =   0.0092593
        k(   39) = (   0.1666667   0.0000000   0.0000000), wk =   0.0092593
        k(   40) = (   0.1666667   0.0277778   0.0000000), wk =   0.0185185
        k(   41) = (   0.1666667   0.0555556   0.0000000), wk =   0.0185185
        k(   42) = (   0.1666667   0.0833333   0.0000000), wk =   0.0185185
        k(   43) = (   0.1666667   0.1111111   0.0000000), wk =   0.0185185
        k(   44) = (   0.1666667   0.1388889   0.0000000), wk =   0.0185185
        k(   45) = (   0.1666667   0.1666667   0.0000000), wk =   0.0185185
        k(   46) = (   0.1666667   0.1944444   0.0000000), wk =   0.0185185
        k(   47) = (   0.1666667   0.2222222   0.0000000), wk =   0.0185185
        k(   48) = (   0.1666667   0.2500000   0.0000000), wk =   0.0185185
        k(   49) = (   0.1666667   0.2777778   0.0000000), wk =   0.0185185
        k(   50) = (   0.1666667   0.3055556   0.0000000), wk =   0.0185185
        k(   51) = (   0.1666667   0.3333333   0.0000000), wk =   0.0185185
        k(   52) = (   0.1666667   0.3611111   0.0000000), wk =   0.0185185
        k(   53) = (   0.1666667   0.3888889   0.0000000), wk =   0.0185185
        k(   54) = (   0.1666667   0.4166667   0.0000000), wk =   0.0185185
        k(   55) = (   0.1666667   0.4444444   0.0000000), wk =   0.0185185
        k(   56) = (   0.1666667   0.4722222   0.0000000), wk =   0.0185185
        k(   57) = (   0.1666667  -0.5000000   0.0000000), wk =   0.0092593
        k(   58) = (   0.2500000   0.0000000   0.0000000), wk =   0.0092593
        k(   59) = (   0.2500000   0.0277778   0.0000000), wk =   0.0185185
        k(   60) = (   0.2500000   0.0555556   0.0000000), wk =   0.0185185
        k(   61) = (   0.2500000   0.0833333   0.0000000), wk =   0.0185185
        k(   62) = (   0.2500000   0.1111111   0.0000000), wk =   0.0185185
        k(   63) = (   0.2500000   0.1388889   0.0000000), wk =   0.0185185
        k(   64) = (   0.2500000   0.1666667   0.0000000), wk =   0.0185185
        k(   65) = (   0.2500000   0.1944444   0.0000000), wk =   0.0185185
        k(   66) = (   0.2500000   0.2222222   0.0000000), wk =   0.0185185
        k(   67) = (   0.2500000   0.2500000   0.0000000), wk =   0.0185185
        k(   68) = (   0.2500000   0.2777778   0.0000000), wk =   0.0185185
        k(   69) = (   0.2500000   0.3055556   0.0000000), wk =   0.0185185
        k(   70) = (   0.2500000   0.3333333   0.0000000), wk =   0.0185185
        k(   71) = (   0.2500000   0.3611111   0.0000000), wk =   0.0185185
        k(   72) = (   0.2500000   0.3888889   0.0000000), wk =   0.0185185
        k(   73) = (   0.2500000   0.4166667   0.0000000), wk =   0.0185185
        k(   74) = (   0.2500000   0.4444444   0.0000000), wk =   0.0185185
        k(   75) = (   0.2500000   0.4722222   0.0000000), wk =   0.0185185
        k(   76) = (   0.2500000  -0.5000000   0.0000000), wk =   0.0092593
        k(   77) = (   0.3333333   0.0000000   0.0000000), wk =   0.0092593
        k(   78) = (   0.3333333   0.0277778   0.0000000), wk =   0.0185185
        k(   79) = (   0.3333333   0.0555556   0.0000000), wk =   0.0185185
        k(   80) = (   0.3333333   0.0833333   0.0000000), wk =   0.0185185
        k(   81) = (   0.3333333   0.1111111   0.0000000), wk =   0.0185185
        k(   82) = (   0.3333333   0.1388889   0.0000000), wk =   0.0185185
        k(   83) = (   0.3333333   0.1666667   0.0000000), wk =   0.0185185
        k(   84) = (   0.3333333   0.1944444   0.0000000), wk =   0.0185185
        k(   85) = (   0.3333333   0.2222222   0.0000000), wk =   0.0185185
        k(   86) = (   0.3333333   0.2500000   0.0000000), wk =   0.0185185
        k(   87) = (   0.3333333   0.2777778   0.0000000), wk =   0.0185185
        k(   88) = (   0.3333333   0.3055556   0.0000000), wk =   0.0185185
        k(   89) = (   0.3333333   0.3333333   0.0000000), wk =   0.0185185
        k(   90) = (   0.3333333   0.3611111   0.0000000), wk =   0.0185185
        k(   91) = (   0.3333333   0.3888889   0.0000000), wk =   0.0185185
        k(   92) = (   0.3333333   0.4166667   0.0000000), wk =   0.0185185
        k(   93) = (   0.3333333   0.4444444   0.0000000), wk =   0.0185185
        k(   94) = (   0.3333333   0.4722222   0.0000000), wk =   0.0185185
        k(   95) = (   0.3333333  -0.5000000   0.0000000), wk =   0.0092593
        k(   96) = (   0.4166667   0.0000000   0.0000000), wk =   0.0092593
        k(   97) = (   0.4166667   0.0277778   0.0000000), wk =   0.0185185
        k(   98) = (   0.4166667   0.0555556   0.0000000), wk =   0.0185185
        k(   99) = (   0.4166667   0.0833333   0.0000000), wk =   0.0185185
        k(  100) = (   0.4166667   0.1111111   0.0000000), wk =   0.0185185
        k(  101) = (   0.4166667   0.1388889   0.0000000), wk =   0.0185185
        k(  102) = (   0.4166667   0.1666667   0.0000000), wk =   0.0185185
        k(  103) = (   0.4166667   0.1944444   0.0000000), wk =   0.0185185
        k(  104) = (   0.4166667   0.2222222   0.0000000), wk =   0.0185185
        k(  105) = (   0.4166667   0.2500000   0.0000000), wk =   0.0185185
        k(  106) = (   0.4166667   0.2777778   0.0000000), wk =   0.0185185
        k(  107) = (   0.4166667   0.3055556   0.0000000), wk =   0.0185185
        k(  108) = (   0.4166667   0.3333333   0.0000000), wk =   0.0185185
        k(  109) = (   0.4166667   0.3611111   0.0000000), wk =   0.0185185
        k(  110) = (   0.4166667   0.3888889   0.0000000), wk =   0.0185185
        k(  111) = (   0.4166667   0.4166667   0.0000000), wk =   0.0185185
        k(  112) = (   0.4166667   0.4444444   0.0000000), wk =   0.0185185
        k(  113) = (   0.4166667   0.4722222   0.0000000), wk =   0.0185185
        k(  114) = (   0.4166667  -0.5000000   0.0000000), wk =   0.0092593
        k(  115) = (  -0.5000000   0.0000000   0.0000000), wk =   0.0046296
        k(  116) = (  -0.5000000   0.0277778   0.0000000), wk =   0.0092593
        k(  117) = (  -0.5000000   0.0555556   0.0000000), wk =   0.0092593
        k(  118) = (  -0.5000000   0.0833333   0.0000000), wk =   0.0092593
        k(  119) = (  -0.5000000   0.1111111   0.0000000), wk =   0.0092593
        k(  120) = (  -0.5000000   0.1388889   0.0000000), wk =   0.0092593
        k(  121) = (  -0.5000000   0.1666667   0.0000000), wk =   0.0092593
        k(  122) = (  -0.5000000   0.1944444   0.0000000), wk =   0.0092593
        k(  123) = (  -0.5000000   0.2222222   0.0000000), wk =   0.0092593
        k(  124) = (  -0.5000000   0.2500000   0.0000000), wk =   0.0092593
        k(  125) = (  -0.5000000   0.2777778   0.0000000), wk =   0.0092593
        k(  126) = (  -0.5000000   0.3055556   0.0000000), wk =   0.0092593
        k(  127) = (  -0.5000000   0.3333333   0.0000000), wk =   0.0092593
        k(  128) = (  -0.5000000   0.3611111   0.0000000), wk =   0.0092593
        k(  129) = (  -0.5000000   0.3888889   0.0000000), wk =   0.0092593
        k(  130) = (  -0.5000000   0.4166667   0.0000000), wk =   0.0092593
        k(  131) = (  -0.5000000   0.4444444   0.0000000), wk =   0.0092593
        k(  132) = (  -0.5000000   0.4722222   0.0000000), wk =   0.0092593
        k(  133) = (  -0.5000000  -0.5000000   0.0000000), wk =   0.0046296

     Dense  grid:   395763 G-vectors     FFT dimensions: ( 150,  45, 125)

     Dynamical RAM for                 wfc:     113.20 MB

     Dynamical RAM for     wfc (w. buffer):     113.20 MB

     Dynamical RAM for           str. fact:       3.02 MB

     Dynamical RAM for           local pot:       0.00 MB

     Dynamical RAM for          nlocal pot:      38.11 MB

     Dynamical RAM for                qrad:       0.77 MB

     Dynamical RAM for          rho,v,vnew:       9.47 MB

     Dynamical RAM for           G-vectors:       6.42 MB

     Dynamical RAM for          h,s,v(r/c):      65.92 MB

     Dynamical RAM for          <psi|beta>:       1.85 MB

     Dynamical RAM for                 psi:     226.41 MB

     Dynamical RAM for                hpsi:     226.41 MB

     Dynamical RAM for      wfcinit/wfcrot:     234.65 MB

     Estimated static dynamical RAM per process >     183.76 MB

     Estimated max dynamical RAM per process >     704.35 MB

     Estimated total dynamical RAM >       2.75 GB

     The potential is recalculated from file :
     ./kpoints_12x36-nbnds_600.save/charge-density

     Starting wfcs are   98 randomized atomic wfcs +  502 random wfcs

     Band Structure Calculation
     Davidson diagonalization with overlap

     Computing kpt #:     1  of   133
     total cpu time spent up to now is        9.6 secs

     Computing kpt #:     2  of   133
     total cpu time spent up to now is       13.1 secs

     Computing kpt #:     3  of   133
     total cpu time spent up to now is       39.5 secs

     Computing kpt #:     4  of   133
     total cpu time spent up to now is       42.3 secs

     Computing kpt #:     5  of   133
     total cpu time spent up to now is       50.6 secs

     Computing kpt #:     6  of   133
     total cpu time spent up to now is       53.6 secs

     Computing kpt #:     7  of   133
     total cpu time spent up to now is       56.8 secs

     Computing kpt #:     8  of   133
     total cpu time spent up to now is       59.6 secs

     Computing kpt #:     9  of   133
     total cpu time spent up to now is       67.4 secs

     Computing kpt #:    10  of   133
     total cpu time spent up to now is       85.3 secs

     Computing kpt #:    11  of   133
     total cpu time spent up to now is       92.4 secs

     Computing kpt #:    12  of   133
     total cpu time spent up to now is      101.2 secs

     Computing kpt #:    13  of   133
     total cpu time spent up to now is      104.0 secs

     Computing kpt #:    14  of   133
     total cpu time spent up to now is      122.1 secs

     Computing kpt #:    15  of   133
     total cpu time spent up to now is      129.3 secs

     Computing kpt #:    16  of   133
     total cpu time spent up to now is      138.3 secs

     Computing kpt #:    17  of   133
     total cpu time spent up to now is      143.3 secs

     Computing kpt #:    18  of   133
     total cpu time spent up to now is      147.3 secs

     Computing kpt #:    19  of   133
     total cpu time spent up to now is      151.9 secs

     Computing kpt #:    20  of   133
     total cpu time spent up to now is      169.0 secs

     Computing kpt #:    21  of   133
     total cpu time spent up to now is      171.8 secs

     Computing kpt #:    22  of   133
     total cpu time spent up to now is      185.2 secs

     Computing kpt #:    23  of   133
     total cpu time spent up to now is      191.9 secs

     Computing kpt #:    24  of   133
     total cpu time spent up to now is      198.0 secs

     Computing kpt #:    25  of   133
     total cpu time spent up to now is      212.2 secs

     Computing kpt #:    26  of   133
     total cpu time spent up to now is      216.1 secs

     Computing kpt #:    27  of   133
     total cpu time spent up to now is      231.7 secs

     Computing kpt #:    28  of   133
     total cpu time spent up to now is      236.7 secs

     Computing kpt #:    29  of   133
     total cpu time spent up to now is      249.9 secs

     Computing kpt #:    30  of   133
     total cpu time spent up to now is      259.6 secs

     Computing kpt #:    31  of   133
     total cpu time spent up to now is      272.2 secs

     Computing kpt #:    32  of   133
     total cpu time spent up to now is      278.5 secs

     Computing kpt #:    33  of   133
     total cpu time spent up to now is      289.5 secs

     Computing kpt #:    34  of   133
     total cpu time spent up to now is      308.3 secs

     Computing kpt #:    35  of   133
     total cpu time spent up to now is      311.2 secs

     Computing kpt #:    36  of   133
     total cpu time spent up to now is      334.3 secs

     Computing kpt #:    37  of   133
     total cpu time spent up to now is      338.3 secs

     Computing kpt #:    38  of   133
     total cpu time spent up to now is      366.5 secs

     Computing kpt #:    39  of   133
     total cpu time spent up to now is      374.3 secs

     Computing kpt #:    40  of   133
     total cpu time spent up to now is      388.2 secs

     Computing kpt #:    41  of   133
     total cpu time spent up to now is      403.3 secs

     Computing kpt #:    42  of   133
     total cpu time spent up to now is      406.3 secs

     Computing kpt #:    43  of   133
     total cpu time spent up to now is      430.6 secs

     Computing kpt #:    44  of   133
     total cpu time spent up to now is      435.3 secs

     Computing kpt #:    45  of   133
     total cpu time spent up to now is      454.5 secs

     Computing kpt #:    46  of   133
     total cpu time spent up to now is      462.2 secs

     Computing kpt #:    47  of   133
     total cpu time spent up to now is      477.1 secs

     Computing kpt #:    48  of   133
     total cpu time spent up to now is      487.7 secs

     Computing kpt #:    49  of   133
     total cpu time spent up to now is      500.8 secs

     Computing kpt #:    50  of   133
     total cpu time spent up to now is      510.4 secs

     Computing kpt #:    51  of   133
     total cpu time spent up to now is      520.8 secs

     Computing kpt #:    52  of   133
     total cpu time spent up to now is      529.4 secs

     Computing kpt #:    53  of   133
     total cpu time spent up to now is      535.3 secs

     Computing kpt #:    54  of   133
     total cpu time spent up to now is      551.2 secs

     Computing kpt #:    55  of   133
     total cpu time spent up to now is      553.9 secs

     Computing kpt #:    56  of   133
     total cpu time spent up to now is      566.6 secs

     Computing kpt #:    57  of   133
     total cpu time spent up to now is      569.9 secs

     Computing kpt #:    58  of   133
     total cpu time spent up to now is      575.5 secs

     Computing kpt #:    59  of   133
     total cpu time spent up to now is      579.4 secs

     Computing kpt #:    60  of   133
     total cpu time spent up to now is      587.2 secs

     Computing kpt #:    61  of   133
     total cpu time spent up to now is      590.3 secs

     Computing kpt #:    62  of   133
     total cpu time spent up to now is      593.1 secs

     Computing kpt #:    63  of   133
     total cpu time spent up to now is      599.4 secs

     Computing kpt #:    64  of   133
     total cpu time spent up to now is      604.2 secs

     Computing kpt #:    65  of   133
     total cpu time spent up to now is      610.1 secs

     Computing kpt #:    66  of   133
     total cpu time spent up to now is      612.9 secs

     Computing kpt #:    67  of   133
     total cpu time spent up to now is      620.0 secs

     Computing kpt #:    68  of   133
     total cpu time spent up to now is      622.8 secs

     Computing kpt #:    69  of   133
     total cpu time spent up to now is      625.8 secs

     Computing kpt #:    70  of   133
     total cpu time spent up to now is      630.8 secs

     Computing kpt #:    71  of   133
     total cpu time spent up to now is      633.5 secs

     Computing kpt #:    72  of   133
     total cpu time spent up to now is      638.1 secs

     Computing kpt #:    73  of   133
     total cpu time spent up to now is      640.9 secs

     Computing kpt #:    74  of   133
     total cpu time spent up to now is      643.7 secs

     Computing kpt #:    75  of   133
     total cpu time spent up to now is      646.4 secs

     Computing kpt #:    76  of   133
     total cpu time spent up to now is      649.3 secs

     Computing kpt #:    77  of   133
     total cpu time spent up to now is      653.2 secs

     Computing kpt #:    78  of   133
     total cpu time spent up to now is      655.9 secs

     Computing kpt #:    79  of   133
     total cpu time spent up to now is      658.7 secs

     Computing kpt #:    80  of   133
     total cpu time spent up to now is      661.5 secs

     Computing kpt #:    81  of   133
     total cpu time spent up to now is      664.3 secs

     Computing kpt #:    82  of   133
     total cpu time spent up to now is      667.1 secs

     Computing kpt #:    83  of   133
     total cpu time spent up to now is      669.9 secs

     Computing kpt #:    84  of   133
     total cpu time spent up to now is      672.8 secs

     Computing kpt #:    85  of   133
     total cpu time spent up to now is      675.5 secs

     Computing kpt #:    86  of   133
     total cpu time spent up to now is      678.3 secs

     Computing kpt #:    87  of   133
     total cpu time spent up to now is      681.1 secs

     Computing kpt #:    88  of   133
     total cpu time spent up to now is      683.8 secs

     Computing kpt #:    89  of   133
     total cpu time spent up to now is      686.6 secs

     Computing kpt #:    90  of   133
     total cpu time spent up to now is      689.3 secs

     Computing kpt #:    91  of   133
     total cpu time spent up to now is      692.1 secs

     Computing kpt #:    92  of   133
     total cpu time spent up to now is      694.8 secs

     Computing kpt #:    93  of   133
     total cpu time spent up to now is      697.5 secs

     Computing kpt #:    94  of   133
     total cpu time spent up to now is      700.2 secs

     Computing kpt #:    95  of   133
     total cpu time spent up to now is      703.0 secs

     Computing kpt #:    96  of   133
     total cpu time spent up to now is      705.8 secs

     Computing kpt #:    97  of   133
     total cpu time spent up to now is      708.6 secs

     Computing kpt #:    98  of   133
     total cpu time spent up to now is      711.4 secs

     Computing kpt #:    99  of   133
     total cpu time spent up to now is      714.2 secs

     Computing kpt #:   100  of   133
     total cpu time spent up to now is      717.0 secs

     Computing kpt #:   101  of   133
     total cpu time spent up to now is      719.8 secs

     Computing kpt #:   102  of   133
     total cpu time spent up to now is      722.6 secs

     Computing kpt #:   103  of   133
     total cpu time spent up to now is      725.4 secs

     Computing kpt #:   104  of   133
     total cpu time spent up to now is      728.1 secs

     Computing kpt #:   105  of   133
     total cpu time spent up to now is      730.9 secs

     Computing kpt #:   106  of   133
     total cpu time spent up to now is      733.7 secs

     Computing kpt #:   107  of   133
     total cpu time spent up to now is      736.4 secs

     Computing kpt #:   108  of   133
     total cpu time spent up to now is      739.2 secs

     Computing kpt #:   109  of   133
     total cpu time spent up to now is      741.9 secs

     Computing kpt #:   110  of   133
     total cpu time spent up to now is      744.7 secs

     Computing kpt #:   111  of   133
     total cpu time spent up to now is      747.4 secs

     Computing kpt #:   112  of   133
     total cpu time spent up to now is      750.2 secs

     Computing kpt #:   113  of   133
     total cpu time spent up to now is      753.0 secs

     Computing kpt #:   114  of   133
     total cpu time spent up to now is      755.7 secs

     Computing kpt #:   115  of   133
     total cpu time spent up to now is      758.4 secs

     Computing kpt #:   116  of   133
     total cpu time spent up to now is      761.2 secs

     Computing kpt #:   117  of   133
     total cpu time spent up to now is      764.0 secs

     Computing kpt #:   118  of   133
     total cpu time spent up to now is      766.8 secs

     Computing kpt #:   119  of   133
     total cpu time spent up to now is      769.6 secs

     Computing kpt #:   120  of   133
     total cpu time spent up to now is      772.3 secs

     Computing kpt #:   121  of   133
     total cpu time spent up to now is      775.1 secs

     Computing kpt #:   122  of   133
     total cpu time spent up to now is      809.6 secs

     Computing kpt #:   123  of   133
     total cpu time spent up to now is      812.3 secs

     Computing kpt #:   124  of   133
     total cpu time spent up to now is      817.6 secs

     Computing kpt #:   125  of   133
     total cpu time spent up to now is      842.3 secs

     Computing kpt #:   126  of   133
     total cpu time spent up to now is      851.3 secs

     Computing kpt #:   127  of   133
     total cpu time spent up to now is      856.8 secs

     Computing kpt #:   128  of   133
     total cpu time spent up to now is      882.0 secs

     Computing kpt #:   129  of   133
     total cpu time spent up to now is      890.9 secs

     Computing kpt #:   130  of   133
     total cpu time spent up to now is      897.5 secs

     Computing kpt #:   131  of   133
     total cpu time spent up to now is      920.0 secs

     Computing kpt #:   132  of   133
     total cpu time spent up to now is      923.3 secs

     Computing kpt #:   133  of   133
     total cpu time spent up to now is      940.2 secs

     ethr =  1.02E-09,  avg # of iterations = 38.0

     total cpu time spent up to now is      940.2 secs

     End of band structure calculation

          k = 0.0000 0.0000 0.0000 ( 49453 PWs)   bands (ev):

   -20.3245 -19.8387 -19.8290 -18.4199 -18.3602 -16.2039 -15.9795 -15.0710
   -14.6527 -14.6411 -14.0378 -13.7240 -13.6794 -13.5357 -13.4571 -13.4420
   -13.3448 -11.5061 -11.3224 -11.2046 -11.1711 -10.1011  -9.7179  -9.5414
    -9.0231  -8.8888  -8.7785  -8.3652  -8.2129  -7.8440  -7.3648  -7.1891
    -7.1301  -6.8836  -6.3221  -5.9538  -5.4149  -5.0241  -4.9772  -4.8307
    -4.6771  -3.9033  -3.8540  -3.3900  -2.9659  -2.4998  -2.1691  -1.7066
    -0.7390  -0.6613   0.0130   0.6385   0.6632   0.7731   1.9734   2.2364
     2.6367   2.9134   3.2948   3.7226   3.7680   3.9226   4.1856   4.7220
     4.7754   4.9450   5.0043   5.5221   5.7206   5.7616   6.0620   6.3014
     6.7876   6.9441   7.0999   7.1433   7.4588   7.5235   7.6950   7.7005
     8.0137   8.0649   8.3119   8.3541   8.5853   8.6338   8.8065   8.8195
     8.8890   8.9344   9.1305   9.1503   9.2430   9.3587   9.4150   9.5516
     9.5746   9.8151  10.0256  10.2396  10.2538  10.3334  10.3585  10.4262
    10.4444  10.4544  10.5996  10.7465  10.7655  10.9045  10.9355  10.9666
    11.0913  11.1485  11.2168  11.2212  11.3942  11.3964  11.5064  11.5769
    11.6724  11.7831  11.8191  11.8674  12.0838  12.0923  12.1879  12.2779
    12.4509  12.5836  12.5988  12.6569  12.7138  12.7759  12.7856  12.8679
    12.9200  12.9468  13.0227  13.0719  13.3533  13.4003  13.4706  13.6462
    13.7559  13.8011  13.9985  14.0110  14.2571  14.2823  14.2991  14.3190
    14.4424  14.4451  14.5156  14.5854  14.6141  14.7563  14.8168  14.8846
    14.9952  15.0784  15.2388  15.2974  15.3777  15.3914  15.5615  15.6744
    15.6898  15.8050  15.8372  16.0682  16.1731  16.1801  16.2943  16.3281
    16.3572  16.5072  16.5478  16.5898  16.6023  16.7344  16.7395  16.8000
    16.8518  16.9620  17.1550  17.2480  17.3601  17.4117  17.5044  17.7549
    17.8855  17.8969  17.9382  17.9854  18.1689  18.1988  18.1991  18.2313
    18.3025  18.3203  18.3541  18.7197  18.7547  18.7563  18.7601  18.9272
    18.9945  19.0480  19.1577  19.3902  19.5256  19.5292  19.6512  19.8265
    19.9113  20.2181  20.2655  20.2947  20.3359  20.3573  20.5727  20.6068
    20.6484  20.6840  20.6881  21.0083  21.0184  21.2381  21.3333  21.3461
    21.4163  21.4841  21.6401  21.7125  21.7211  21.7288  21.7765  21.8047
    21.8542  21.9318  22.0768  22.1115  22.2308  22.2390  22.3823  22.4078
    22.4106  22.4153  22.5120  22.5899  22.8038  22.8338  22.9115  22.9216
    22.9415  22.9700  23.1601  23.2177  23.3816  23.4597  23.4679  23.5190
    23.5382  23.5455  23.6245  23.6373  23.7657  23.8961  24.0089  24.0322
    24.1249  24.1289  24.2971  24.3076  24.4382  24.4706  24.5886  24.6980
    24.8926  24.9753  24.9795  24.9873  25.0466  25.1058  25.1809  25.4952
    25.4998  25.5423  25.5753  25.6405  25.6847  25.7410  25.8894  25.9170
    26.0388  26.1132  26.1158  26.1617  26.2673  26.3762  26.5140  26.5587
    26.6540  26.6897  26.7971  26.9726  27.1404  27.2068  27.3135  27.3997
    27.4255  27.4725  27.6862  27.8857  27.9461  28.0931  28.1370  28.2527
    28.3041  28.3680  28.4882  28.5805  28.6898  28.7021  28.8210  28.9837
    29.0413  29.0957  29.1243  29.1542  29.1936  29.3561  29.3712  29.4257
    29.5670  29.7105  29.7198  29.9023  29.9296  30.0929  30.0949  30.1520
    30.1964  30.3374  30.3542  30.4292  30.4394  30.4814  30.6055  30.6954
    30.7901  30.8934  30.9111  31.0370  31.1455  31.1525  31.4154  31.4362
    31.4948  31.5906  31.6832  31.7315  31.8212  31.9643  31.9685  32.0365
    32.0604  32.3010  32.4827  32.6188  32.7208  32.8376  32.8461  32.9803
    33.1182  33.2398  33.2656  33.3431  33.4261  33.5217  33.5980  33.6329
    33.7982  33.8339  33.8346  33.9900  34.0063  34.0424  34.1024  34.1649
    34.2433  34.2526  34.3292  34.3617  34.3796  34.6290  34.6972  34.7145
    34.8453  34.9033  34.9145  34.9314  34.9347  35.0357  35.0895  35.1647
    35.1714  35.1835  35.2067  35.3215  35.3783  35.4951  35.5489  35.6194
    35.6749  35.6969  35.7856  35.8665  35.9013  35.9658  36.0571  36.0795
    36.1111  36.1124  36.1860  36.2135  36.2689  36.2848  36.3907  36.4513
    36.6355  36.6562  36.7508  36.8456  36.8508  36.9851  36.9895  37.1440
    37.1901  37.2093  37.2321  37.2880  37.3707  37.5189  37.5381  37.5535
    37.6229  37.6285  37.6807  37.7356  37.7621  37.7929  37.8209  37.9791
    37.9957  38.0025  38.0768  38.0866  38.1095  38.1109  38.1369  38.1930
    38.1974  38.2811  38.3960  38.5751  38.6285  38.6322  38.6821  38.7481
    38.9474  38.9620  38.9810  39.0380  39.1122  39.1338  39.2317  39.3679
    39.4369  39.4778  39.5010  39.6090  39.6147  39.7288  39.8110  39.8647
    40.0559  40.1141  40.1767  40.2491  40.2898  40.3030  40.3775  40.4104
    40.4124  40.4742  40.4763  40.5642  40.5657  40.6078  40.6637  40.7987
    40.8123  40.8538  40.9333  40.9682  41.0009  41.0081  41.1243  41.1612
    41.2940  41.3257  41.3355  41.3517  41.4049  41.5035  41.5228  41.5539
    41.6503  41.6551  41.7076  41.7119  41.7408  41.8072  41.8516  41.8963
    41.9485  42.0631  42.0762  42.2002  42.2313  42.2375  42.3088  42.3743
    42.3821  42.3872  42.5272  42.5925  42.6337  42.6426  42.6541  42.6829
    42.7615  42.7649  42.8392  42.8622  42.9811  43.0027  43.0154  43.0848
    43.1283  43.1531  43.2559  43.3747  43.4214  43.5133  43.5738  43.6015
    43.6246  43.6981  43.7087  43.7926  43.8296  43.8675  43.9043  43.9158
    43.9711  44.0107  44.0149  44.1007  44.1277  44.2252  44.4443  44.5005
    44.5408  44.5492  44.6108  44.6239  44.6350  44.7473  44.8055  44.8807
    44.9319  44.9347  45.0666  45.0681  45.1622  45.2315  45.3154  45.4747
    45.5166  45.5364  45.5757  45.5881  45.7307  45.7668  45.9419  45.9619

     occupation numbers 
     1.0000   1.0000   1.0000   1.0000   1.0000   1.0000   1.0000   1.0000
     1.0000   1.0000   1.0000   1.0000   1.0000   1.0000   1.0000   1.0000
     1.0000   1.0000   1.0000   1.0000   1.0000   1.0000   1.0000   1.0000
     1.0000   1.0000   1.0000   1.0000   1.0000   1.0000   1.0000   1.0000
     1.0000   1.0000   1.0000   1.0000   1.0000   1.0000   1.0000   1.0000
     1.0000   1.0000   1.0000   1.0000   1.0000   1.0000   1.0000   1.0000
     1.0000   0.0000   0.0000   0.0000   0.0000   0.0000   0.0000   0.0000
     0.0000   0.0000   0.0000   0.0000   0.0000   0.0000   0.0000   0.0000
     0.0000   0.0000   0.0000   0.0000   0.0000   0.0000   0.0000   0.0000
     0.0000   0.0000   0.0000   0.0000   0.0000   0.0000   0.0000   0.0000
     0.0000   0.0000   0.0000   0.0000   0.0000   0.0000   0.0000   0.0000
     0.0000   0.0000   0.0000   0.0000   0.0000   0.0000   0.0000   0.0000
     0.0000   0.0000   0.0000   0.0000   0.0000   0.0000   0.0000   0.0000
     0.0000   0.0000   0.0000   0.0000   0.0000   0.0000   0.0000   0.0000
     0.0000   0.0000   0.0000   0.0000   0.0000   0.0000   0.0000   0.0000
     0.0000   0.0000   0.0000   0.0000   0.0000   0.0000   0.0000   0.0000
     0.0000   0.0000   0.0000   0.0000   0.0000   0.0000   0.0000   0.0000
     0.0000   0.0000   0.0000   0.0000   0.0000   0.0000   0.0000   0.0000
     0.0000   0.0000   0.0000   0.0000   0.0000   0.0000   0.0000   0.0000
     0.0000   0.0000   0.0000   0.0000   0.0000   0.0000   0.0000   0.0000
     0.0000   0.0000   0.0000   0.0000   0.0000   0.0000   0.0000   0.0000
     0.0000   0.0000   0.0000   0.0000   0.0000   0.0000   0.0000   0.0000
     0.0000   0.0000   0.0000   0.0000   0.0000   0.0000   0.0000   0.0000
     0.0000   0.0000   0.0000   0.0000   0.0000   0.0000   0.0000   0.0000
     0.0000   0.0000   0.0000   0.0000   0.0000   0.0000   0.0000   0.0000
     0.0000   0.0000   0.0000   0.0000   0.0000   0.0000   0.0000   0.0000
     0.0000   0.0000   0.0000   0.0000   0.0000   0.0000   0.0000   0.0000
     0.0000   0.0000   0.0000   0.0000   0.0000   0.0000   0.0000   0.0000
     0.0000   0.0000   0.0000   0.0000   0.0000   0.0000   0.0000   0.0000
     0.0000   0.0000   0.0000   0.0000   0.0000   0.0000   0.0000   0.0000
     0.0000   0.0000   0.0000   0.0000   0.0000   0.0000   0.0000   0.0000
     0.0000   0.0000   0.0000   0.0000   0.0000   0.0000   0.0000   0.0000
     0.0000   0.0000   0.0000   0.0000   0.0000   0.0000   0.0000   0.0000
     0.0000   0.0000   0.0000   0.0000   0.0000   0.0000   0.0000   0.0000
     0.0000   0.0000   0.0000   0.0000   0.0000   0.0000   0.0000   0.0000
     0.0000   0.0000   0.0000   0.0000   0.0000   0.0000   0.0000   0.0000
     0.0000   0.0000   0.0000   0.0000   0.0000   0.0000   0.0000   0.0000
     0.0000   0.0000   0.0000   0.0000   0.0000   0.0000   0.0000   0.0000
     0.0000   0.0000   0.0000   0.0000   0.0000   0.0000   0.0000   0.0000
     0.0000   0.0000   0.0000   0.0000   0.0000   0.0000   0.0000   0.0000
     0.0000   0.0000   0.0000   0.0000   0.0000   0.0000   0.0000   0.0000
     0.0000   0.0000   0.0000   0.0000   0.0000   0.0000   0.0000   0.0000
     0.0000   0.0000   0.0000   0.0000   0.0000   0.0000   0.0000   0.0000
     0.0000   0.0000   0.0000   0.0000   0.0000   0.0000   0.0000   0.0000
     0.0000   0.0000   0.0000   0.0000   0.0000   0.0000   0.0000   0.0000
     0.0000   0.0000   0.0000   0.0000   0.0000   0.0000   0.0000   0.0000
     0.0000   0.0000   0.0000   0.0000   0.0000   0.0000   0.0000   0.0000
     0.0000   0.0000   0.0000   0.0000   0.0000   0.0000   0.0000   0.0000
     0.0000   0.0000   0.0000   0.0000   0.0000   0.0000   0.0000   0.0000
     0.0000   0.0000   0.0000   0.0000   0.0000   0.0000   0.0000   0.0000
     0.0000   0.0000   0.0000   0.0000   0.0000   0.0000   0.0000   0.0000
     0.0000   0.0000   0.0000   0.0000   0.0000   0.0000   0.0000   0.0000
     0.0000   0.0000   0.0000   0.0000   0.0000   0.0000   0.0000   0.0000
     0.0000   0.0000   0.0000   0.0000   0.0000   0.0000   0.0000   0.0000
     0.0000   0.0000   0.0000   0.0000   0.0000   0.0000   0.0000   0.0000
     0.0000   0.0000   0.0000   0.0000   0.0000   0.0000   0.0000   0.0000
     0.0000   0.0000   0.0000   0.0000   0.0000   0.0000   0.0000   0.0000
     0.0000   0.0000   0.0000   0.0000   0.0000   0.0000   0.0000   0.0000
     0.0000   0.0000   0.0000   0.0000   0.0000   0.0000   0.0000   0.0000
     0.0000   0.0000   0.0000   0.0000   0.0000   0.0000   0.0000   0.0000
     0.0000   0.0000   0.0000   0.0000   0.0000   0.0000   0.0000   0.0000
     0.0000   0.0000   0.0000   0.0000   0.0000   0.0000   0.0000   0.0000
     0.0000   0.0000   0.0000   0.0000   0.0000   0.0000   0.0000   0.0000
     0.0000   0.0000   0.0000   0.0000   0.0000   0.0000   0.0000   0.0000
     0.0000   0.0000   0.0000   0.0000   0.0000   0.0000   0.0000   0.0000
     0.0000   0.0000   0.0000   0.0000   0.0000   0.0000   0.0000   0.0000
     0.0000   0.0000   0.0000   0.0000   0.0000   0.0000   0.0000   0.0000
     0.0000   0.0000   0.0000   0.0000   0.0000   0.0000   0.0000   0.0000
     0.0000   0.0000   0.0000   0.0000   0.0000   0.0000   0.0000   0.0000
     0.0000   0.0000   0.0000   0.0000   0.0000   0.0000   0.0000   0.0000
     0.0000   0.0000   0.0000   0.0000   0.0000   0.0000   0.0000   0.0000
     0.0000   0.0000   0.0000   0.0000   0.0000   0.0000   0.0000   0.0000
     0.0000   0.0000   0.0000   0.0000   0.0000   0.0000   0.0000   0.0000
     0.0000   0.0000   0.0000   0.0000   0.0000   0.0000   0.0000   0.0000
     0.0000   0.0000   0.0000   0.0000   0.0000   0.0000   0.0000   0.0000

          k = 0.0000 0.0941 0.0000 ( 49447 PWs)   bands (ev):

   -20.3200 -19.8342 -19.8244 -18.4154 -18.3558 -16.1997 -15.9756 -15.1508
   -14.7325 -14.7173 -13.9528 -13.7356 -13.6189 -13.5592 -13.5443 -13.3634
   -13.2367 -11.5447 -11.2880 -11.2172 -11.1702 -10.0811  -9.6790  -9.5194
    -9.0169  -8.9173  -8.7690  -8.3974  -8.2071  -7.8387  -7.3534  -7.1692
    -7.1112  -6.8804  -6.3380  -5.9487  -5.4398  -5.0506  -4.9658  -4.8262
    -4.6706  -3.9199  -3.8649  -3.3875  -2.9968  -2.5333  -2.1721  -1.7511
    -0.9270  -0.4749   0.0596   0.6619   0.6771   0.8104   1.9810   2.2271
     2.6432   2.9198   3.3009   3.7288   3.7548   3.9290   4.1929   4.7282
     4.7816   4.9528   5.0110   5.5295   5.6934   5.7830   6.0682   6.3085
     6.7932   6.9501   7.0940   7.1380   7.4554   7.5282   7.7014   7.7051
     7.9797   8.0705   8.3182   8.3527   8.5832   8.6231   8.8048   8.8313
     8.8936   8.9407   9.1155   9.1413   9.1668   9.2257   9.4416   9.4422
     9.7402   9.8167   9.9944  10.1575  10.2170  10.2980  10.3373  10.3911
    10.4188  10.4819  10.4944  10.7384  10.8399  10.8807  10.9330  11.0049
    11.0321  11.1195  11.2281  11.2557  11.3575  11.4019  11.4337  11.5808
    11.7061  11.7663  11.8960  11.9501  11.9632  12.2225  12.2347  12.3195
    12.3660  12.3774  12.5741  12.5958  12.6990  12.7266  12.8279  12.9028
    12.9515  13.0589  13.1901  13.2329  13.2581  13.4691  13.5908  13.6040
    13.7978  13.8349  13.9967  13.9994  14.1264  14.1657  14.2655  14.2933
    14.4048  14.4067  14.4874  14.6285  14.6971  14.7535  14.7733  14.9722
    14.9868  15.1657  15.2975  15.3116  15.3937  15.4123  15.5919  15.6349
    15.7013  15.8559  15.8563  16.0132  16.0479  16.0918  16.2417  16.3238
    16.3277  16.4188  16.5041  16.6303  16.6920  16.8121  16.8182  16.8635
    16.8991  17.0099  17.0882  17.3005  17.3280  17.4316  17.4506  17.7542
    17.7918  17.8341  17.9970  18.0189  18.0681  18.2091  18.2194  18.2954
    18.3582  18.3628  18.4306  18.5757  18.6341  18.8239  18.8667  18.9747
    19.0262  19.1761  19.3191  19.3296  19.4142  19.6805  19.7025  19.9027
    19.9347  20.2049  20.2530  20.2826  20.3151  20.3261  20.5270  20.5889
    20.6578  20.7209  20.7475  21.0064  21.0104  21.2016  21.2993  21.3235
    21.3888  21.4900  21.6140  21.6753  21.6959  21.7358  21.7501  21.7626
    21.8734  21.9159  22.0510  22.1499  22.2504  22.3107  22.3432  22.3593
    22.3856  22.4448  22.5556  22.5582  22.7996  22.8037  22.9001  22.9173
    22.9813  22.9928  23.0768  23.2322  23.3449  23.3631  23.4603  23.5108
    23.5487  23.6028  23.6279  23.7463  23.7965  23.9387  24.0492  24.0517
    24.1150  24.1576  24.2786  24.3657  24.5069  24.5496  24.6313  24.7423
    24.8905  24.9377  24.9405  25.0652  25.0800  25.1133  25.2317  25.4069
    25.4536  25.5102  25.5369  25.6634  25.7168  25.7958  25.8563  25.9762
    26.0370  26.0430  26.0693  26.1539  26.3126  26.4106  26.4690  26.4956
    26.6084  26.6870  26.9488  27.0171  27.1314  27.2250  27.3558  27.4073
    27.4171  27.4524  27.7113  27.8852  27.9717  27.9996  28.0986  28.1457
    28.3138  28.4333  28.5158  28.5438  28.5557  28.6968  28.7623  28.9394
    28.9941  29.0964  29.1809  29.2405  29.3100  29.3159  29.4010  29.4655
    29.4760  29.6279  29.7196  29.7553  29.8889  29.9269  30.1449  30.1784
    30.2487  30.3325  30.3864  30.4797  30.4922  30.5837  30.6983  30.7597
    30.8053  30.8908  30.9435  31.1001  31.1577  31.2042  31.3693  31.4049
    31.4374  31.5012  31.6849  31.7296  31.8406  31.8998  32.0325  32.1034
    32.2332  32.3047  32.4257  32.5360  32.6565  32.8789  32.9777  32.9955
    33.1526  33.2040  33.2304  33.3284  33.3673  33.5436  33.5445  33.6156
    33.6563  33.8206  33.8353  33.9134  33.9946  34.0459  34.1148  34.1456
    34.1571  34.2598  34.3558  34.3926  34.4476  34.5703  34.5769  34.6297
    34.6944  34.7526  34.8933  34.9141  34.9264  34.9965  35.0030  35.0172
    35.1287  35.2210  35.2726  35.3173  35.3786  35.4872  35.5359  35.6017
    35.6745  35.6819  35.7275  35.8877  35.9133  35.9751  35.9796  36.0420
    36.1006  36.1873  36.1953  36.2724  36.3230  36.3585  36.4228  36.4498
    36.4661  36.5463  36.6314  36.7008  36.7273  36.8559  36.8627  36.9900
    37.0927  37.2040  37.2069  37.2454  37.3288  37.3581  37.4547  37.5001
    37.5195  37.5899  37.6964  37.7256  37.7858  37.7882  37.9567  37.9993
    38.0556  38.1149  38.1477  38.1939  38.2109  38.2910  38.3787  38.4293
    38.5199  38.5262  38.5589  38.6137  38.6402  38.6767  38.7965  38.8032
    38.8557  38.9092  38.9573  39.0072  39.0963  39.1748  39.2081  39.2252
    39.2339  39.3649  39.4358  39.6193  39.7023  39.7913  39.8704  39.9904
    40.0168  40.0932  40.1468  40.1523  40.2257  40.2661  40.3012  40.3028
    40.4179  40.4371  40.4857  40.5490  40.5979  40.6178  40.6283  40.6799
    40.7080  40.8136  40.8953  40.9318  41.0032  41.0184  41.0437  41.1030
    41.1415  41.2736  41.2751  41.3049  41.3119  41.3921  41.4588  41.4725
    41.6265  41.6402  41.6767  41.7498  41.7719  41.8514  41.9408  41.9826
    42.0380  42.1280  42.1617  42.1752  42.2089  42.3027  42.3711  42.3867
    42.4194  42.4631  42.5298  42.5348  42.5811  42.6550  42.6798  42.7327
    42.7488  42.8424  42.9205  42.9409  43.0225  43.0270  43.1178  43.1409
    43.1917  43.2087  43.2430  43.3569  43.3918  43.4477  43.4996  43.5319
    43.6245  43.6644  43.7575  43.7718  43.8513  43.8778  43.9826  44.0001
    44.1018  44.1047  44.1415  44.2785  44.3050  44.3610  44.4313  44.4660
    44.5225  44.5606  44.5890  44.6292  44.7132  44.7714  44.9056  44.9393
    44.9993  45.0261  45.0670  45.1571  45.1863  45.2145  45.3645  45.3966
    45.4812  45.5700  45.6326  45.6908  45.7250  45.7464  45.8045  45.9049

     occupation numbers 
     1.0000   1.0000   1.0000   1.0000   1.0000   1.0000   1.0000   1.0000
     1.0000   1.0000   1.0000   1.0000   1.0000   1.0000   1.0000   1.0000
     1.0000   1.0000   1.0000   1.0000   1.0000   1.0000   1.0000   1.0000
     1.0000   1.0000   1.0000   1.0000   1.0000   1.0000   1.0000   1.0000
     1.0000   1.0000   1.0000   1.0000   1.0000   1.0000   1.0000   1.0000
     1.0000   1.0000   1.0000   1.0000   1.0000   1.0000   1.0000   1.0000
     1.0000   0.0000   0.0000   0.0000   0.0000   0.0000   0.0000   0.0000
     0.0000   0.0000   0.0000   0.0000   0.0000   0.0000   0.0000   0.0000
     0.0000   0.0000   0.0000   0.0000   0.0000   0.0000   0.0000   0.0000
     0.0000   0.0000   0.0000   0.0000   0.0000   0.0000   0.0000   0.0000
     0.0000   0.0000   0.0000   0.0000   0.0000   0.0000   0.0000   0.0000
     0.0000   0.0000   0.0000   0.0000   0.0000   0.0000   0.0000   0.0000
     0.0000   0.0000   0.0000   0.0000   0.0000   0.0000   0.0000   0.0000
     0.0000   0.0000   0.0000   0.0000   0.0000   0.0000   0.0000   0.0000
     0.0000   0.0000   0.0000   0.0000   0.0000   0.0000   0.0000   0.0000
     0.0000   0.0000   0.0000   0.0000   0.0000   0.0000   0.0000   0.0000
     0.0000   0.0000   0.0000   0.0000   0.0000   0.0000   0.0000   0.0000
     0.0000   0.0000   0.0000   0.0000   0.0000   0.0000   0.0000   0.0000
     0.0000   0.0000   0.0000   0.0000   0.0000   0.0000   0.0000   0.0000
     0.0000   0.0000   0.0000   0.0000   0.0000   0.0000   0.0000   0.0000
     0.0000   0.0000   0.0000   0.0000   0.0000   0.0000   0.0000   0.0000
     0.0000   0.0000   0.0000   0.0000   0.0000   0.0000   0.0000   0.0000
     0.0000   0.0000   0.0000   0.0000   0.0000   0.0000   0.0000   0.0000
     0.0000   0.0000   0.0000   0.0000   0.0000   0.0000   0.0000   0.0000
     0.0000   0.0000   0.0000   0.0000   0.0000   0.0000   0.0000   0.0000
     0.0000   0.0000   0.0000   0.0000   0.0000   0.0000   0.0000   0.0000
     0.0000   0.0000   0.0000   0.0000   0.0000   0.0000   0.0000   0.0000
     0.0000   0.0000   0.0000   0.0000   0.0000   0.0000   0.0000   0.0000
     0.0000   0.0000   0.0000   0.0000   0.0000   0.0000   0.0000   0.0000
     0.0000   0.0000   0.0000   0.0000   0.0000   0.0000   0.0000   0.0000
     0.0000   0.0000   0.0000   0.0000   0.0000   0.0000   0.0000   0.0000
     0.0000   0.0000   0.0000   0.0000   0.0000   0.0000   0.0000   0.0000
     0.0000   0.0000   0.0000   0.0000   0.0000   0.0000   0.0000   0.0000
     0.0000   0.0000   0.0000   0.0000   0.0000   0.0000   0.0000   0.0000
     0.0000   0.0000   0.0000   0.0000   0.0000   0.0000   0.0000   0.0000
     0.0000   0.0000   0.0000   0.0000   0.0000   0.0000   0.0000   0.0000
     0.0000   0.0000   0.0000   0.0000   0.0000   0.0000   0.0000   0.0000
     0.0000   0.0000   0.0000   0.0000   0.0000   0.0000   0.0000   0.0000
     0.0000   0.0000   0.0000   0.0000   0.0000   0.0000   0.0000   0.0000
     0.0000   0.0000   0.0000   0.0000   0.0000   0.0000   0.0000   0.0000
     0.0000   0.0000   0.0000   0.0000   0.0000   0.0000   0.0000   0.0000
     0.0000   0.0000   0.0000   0.0000   0.0000   0.0000   0.0000   0.0000
     0.0000   0.0000   0.0000   0.0000   0.0000   0.0000   0.0000   0.0000
     0.0000   0.0000   0.0000   0.0000   0.0000   0.0000   0.0000   0.0000
     0.0000   0.0000   0.0000   0.0000   0.0000   0.0000   0.0000   0.0000
     0.0000   0.0000   0.0000   0.0000   0.0000   0.0000   0.0000   0.0000
     0.0000   0.0000   0.0000   0.0000   0.0000   0.0000   0.0000   0.0000
     0.0000   0.0000   0.0000   0.0000   0.0000   0.0000   0.0000   0.0000
     0.0000   0.0000   0.0000   0.0000   0.0000   0.0000   0.0000   0.0000
     0.0000   0.0000   0.0000   0.0000   0.0000   0.0000   0.0000   0.0000
     0.0000   0.0000   0.0000   0.0000   0.0000   0.0000   0.0000   0.0000
     0.0000   0.0000   0.0000   0.0000   0.0000   0.0000   0.0000   0.0000
     0.0000   0.0000   0.0000   0.0000   0.0000   0.0000   0.0000   0.0000
     0.0000   0.0000   0.0000   0.0000   0.0000   0.0000   0.0000   0.0000
     0.0000   0.0000   0.0000   0.0000   0.0000   0.0000   0.0000   0.0000
     0.0000   0.0000   0.0000   0.0000   0.0000   0.0000   0.0000   0.0000
     0.0000   0.0000   0.0000   0.0000   0.0000   0.0000   0.0000   0.0000
     0.0000   0.0000   0.0000   0.0000   0.0000   0.0000   0.0000   0.0000
     0.0000   0.0000   0.0000   0.0000   0.0000   0.0000   0.0000   0.0000
     0.0000   0.0000   0.0000   0.0000   0.0000   0.0000   0.0000   0.0000
     0.0000   0.0000   0.0000   0.0000   0.0000   0.0000   0.0000   0.0000
     0.0000   0.0000   0.0000   0.0000   0.0000   0.0000   0.0000   0.0000
     0.0000   0.0000   0.0000   0.0000   0.0000   0.0000   0.0000   0.0000
     0.0000   0.0000   0.0000   0.0000   0.0000   0.0000   0.0000   0.0000
     0.0000   0.0000   0.0000   0.0000   0.0000   0.0000   0.0000   0.0000
     0.0000   0.0000   0.0000   0.0000   0.0000   0.0000   0.0000   0.0000
     0.0000   0.0000   0.0000   0.0000   0.0000   0.0000   0.0000   0.0000
     0.0000   0.0000   0.0000   0.0000   0.0000   0.0000   0.0000   0.0000
     0.0000   0.0000   0.0000   0.0000   0.0000   0.0000   0.0000   0.0000
     0.0000   0.0000   0.0000   0.0000   0.0000   0.0000   0.0000   0.0000
     0.0000   0.0000   0.0000   0.0000   0.0000   0.0000   0.0000   0.0000
     0.0000   0.0000   0.0000   0.0000   0.0000   0.0000   0.0000   0.0000
     0.0000   0.0000   0.0000   0.0000   0.0000   0.0000   0.0000   0.0000
     0.0000   0.0000   0.0000   0.0000   0.0000   0.0000   0.0000   0.0000
     0.0000   0.0000   0.0000   0.0000   0.0000   0.0000   0.0000   0.0000

          k = 0.0000 0.1883 0.0000 ( 49467 PWs)   bands (ev):

   -20.3063 -19.8206 -19.8108 -18.4020 -18.3425 -16.1871 -15.9639 -15.3397
   -14.9199 -14.8987 -13.8698 -13.7770 -13.7385 -13.4175 -13.3830 -13.2343
   -13.1053 -11.6482 -11.3222 -11.1918 -11.0910 -10.0302  -9.5745  -9.4553
    -8.9977  -8.9902  -8.7469  -8.4852  -8.1900  -7.8228  -7.3256  -7.1140
    -7.0566  -6.8717  -6.3833  -5.9333  -5.5094  -5.1109  -4.9495  -4.8180
    -4.6537  -3.9699  -3.8972  -3.3800  -3.0861  -2.6290  -2.1813  -1.8722
    -1.1501  -0.2567   0.1870   0.6586   0.7877   0.9187   2.0036   2.1995
     2.6628   2.9392   3.3195   3.7157   3.7475   3.9481   4.2144   4.7466
     4.8001   4.9762   5.0312   5.5515   5.6410   5.8182   6.0865   6.3295
     6.8096   6.9681   7.0551   7.1441   7.4445   7.5419   7.7192   7.7196
     7.8969   8.0870   8.3368   8.3474   8.5788   8.5938   8.7463   8.7932
     8.8724   8.9095   8.9573   9.1003   9.1637   9.2229   9.3266   9.5090
     9.6610   9.8069   9.8492   9.9785  10.1104  10.2734  10.3521  10.3687
    10.4347  10.4556  10.5277  10.5964  10.6509  10.6565  10.8884  10.9947
    11.0147  11.2185  11.2440  11.3496  11.3516  11.3813  11.4041  11.6207
    11.6681  11.8662  11.9224  11.9798  12.0557  12.0672  12.1733  12.2695
    12.3014  12.4018  12.5685  12.6280  12.7033  12.7664  12.9254  12.9850
    13.0423  13.0873  13.1371  13.4462  13.4711  13.5747  13.7308  13.7444
    13.8111  13.8811  13.9000  13.9671  13.9818  14.0028  14.2343  14.2535
    14.2767  14.3725  14.4848  14.6450  14.6648  14.7527  14.8621  15.1019
    15.1381  15.1710  15.3100  15.3755  15.4688  15.4774  15.5615  15.5653
    15.7504  15.8082  15.8843  15.9388  15.9616  16.0624  16.0828  16.1685
    16.3361  16.4589  16.4890  16.6883  16.7495  16.8657  16.9239  16.9514
    16.9929  17.0406  17.1458  17.2187  17.3338  17.4384  17.5715  17.5928
    17.6362  17.7266  17.9236  18.0787  18.0789  18.2011  18.2329  18.3646
    18.4361  18.5363  18.5380  18.6714  18.7071  18.8468  18.9144  19.0387
    19.1404  19.2093  19.3828  19.4561  19.6003  19.7997  19.8582  20.0007
    20.0633  20.1518  20.1555  20.2139  20.3083  20.3162  20.4649  20.5299
    20.6513  20.8122  20.8590  20.9859  21.0306  21.1197  21.2006  21.2959
    21.3614  21.4572  21.5080  21.5917  21.6555  21.6835  21.7451  21.7582
    21.9044  21.9056  22.0715  22.1096  22.2051  22.2273  22.3059  22.3813
    22.4185  22.5019  22.5318  22.5780  22.7204  22.7523  22.8613  22.9007
    22.9319  23.0670  23.0769  23.2413  23.3376  23.3443  23.4109  23.5494
    23.5740  23.6961  23.7295  23.8044  23.8566  23.9286  24.0156  24.1157
    24.1589  24.3388  24.3979  24.4474  24.6263  24.6986  24.7349  24.7736
    24.8509  24.9725  24.9819  25.0659  25.1472  25.1900  25.3147  25.3533
    25.4040  25.4736  25.4873  25.6668  25.7211  25.7697  25.8891  25.9606
    25.9712  26.0696  26.0716  26.1071  26.2938  26.3840  26.3965  26.4750
    26.7092  26.7249  27.0169  27.0979  27.1798  27.2808  27.3588  27.3596
    27.4955  27.5454  27.7255  27.7440  27.8248  27.9648  28.0970  28.1154
    28.1889  28.3115  28.3568  28.5506  28.6053  28.7015  28.7355  28.9277
    28.9602  29.0401  29.1227  29.1400  29.2275  29.3605  29.4107  29.5337
    29.5684  29.6299  29.6449  29.7250  29.8103  29.8491  30.0195  30.1558
    30.1928  30.3133  30.5985  30.6068  30.6866  30.6889  30.7377  30.7753
    30.8182  30.9335  31.1122  31.1778  31.2071  31.2140  31.3262  31.3691
    31.4433  31.5181  31.5931  31.6665  31.9677  32.0183  32.0749  32.1736
    32.2328  32.3259  32.4585  32.5225  32.7286  32.9073  32.9359  32.9505
    33.1041  33.1096  33.1235  33.1719  33.2862  33.4485  33.5133  33.5540
    33.6631  33.7253  33.7566  33.7760  33.8222  33.9138  33.9576  34.0879
    34.1526  34.3184  34.3188  34.3548  34.4204  34.4519  34.4691  34.5360
    34.5993  34.7233  34.8052  34.8095  34.8532  34.8682  34.9427  34.9668
    35.0477  35.0895  35.0939  35.2200  35.2940  35.3789  35.3922  35.4961
    35.5294  35.6231  35.6869  35.8224  35.8673  35.8832  35.9398  36.0280
    36.0693  36.1004  36.1298  36.1502  36.2818  36.3116  36.3994  36.4475
    36.5307  36.5751  36.5865  36.6183  36.6624  36.6812  36.8071  36.8120
    36.8915  37.1152  37.1164  37.1333  37.2509  37.2957  37.2968  37.4710
    37.5149  37.5714  37.7350  37.7551  37.8672  37.8728  37.9903  38.0237
    38.0857  38.1323  38.1825  38.3207  38.3434  38.4429  38.4823  38.5682
    38.5877  38.6078  38.6081  38.7952  38.8451  38.8763  38.9097  38.9171
    39.0197  39.0713  39.0769  39.1473  39.2324  39.2622  39.2824  39.3224
    39.3761  39.4717  39.4996  39.5817  39.6274  39.7055  39.7113  39.8314
    39.8319  39.8855  39.9776  40.0258  40.0662  40.1783  40.1803  40.2258
    40.2438  40.2648  40.3513  40.3538  40.3642  40.5523  40.6099  40.6204
    40.7273  40.7623  40.8668  40.8894  40.9518  41.0099  41.0146  41.0412
    41.0945  41.2330  41.2775  41.3236  41.3686  41.4067  41.4146  41.4456
    41.5418  41.5600  41.7048  41.7129  41.7798  41.8560  41.9095  41.9473
    41.9748  42.0910  42.1171  42.1241  42.1586  42.3020  42.3679  42.4458
    42.4559  42.5229  42.5460  42.6287  42.6796  42.7001  42.7601  42.8320
    42.8510  42.9009  42.9674  43.0155  43.0305  43.1594  43.1891  43.3145
    43.3386  43.3419  43.3571  43.3908  43.4905  43.5740  43.6162  43.6752
    43.7178  43.8106  43.9176  43.9395  44.0473  44.0564  44.1075  44.1156
    44.1618  44.1872  44.2360  44.3526  44.3541  44.4099  44.4838  44.5303
    44.5617  44.5887  44.6294  44.7867  44.8269  44.8374  44.9729  44.9730
    45.0624  45.1290  45.1531  45.2091  45.2408  45.3499  45.3585  45.3815
    45.4379  45.4476  45.4627  45.6057  45.6963  45.7196  45.7684  45.8211

     occupation numbers 
     1.0000   1.0000   1.0000   1.0000   1.0000   1.0000   1.0000   1.0000
     1.0000   1.0000   1.0000   1.0000   1.0000   1.0000   1.0000   1.0000
     1.0000   1.0000   1.0000   1.0000   1.0000   1.0000   1.0000   1.0000
     1.0000   1.0000   1.0000   1.0000   1.0000   1.0000   1.0000   1.0000
     1.0000   1.0000   1.0000   1.0000   1.0000   1.0000   1.0000   1.0000
     1.0000   1.0000   1.0000   1.0000   1.0000   1.0000   1.0000   1.0000
     1.0000   0.0000   0.0000   0.0000   0.0000   0.0000   0.0000   0.0000
     0.0000   0.0000   0.0000   0.0000   0.0000   0.0000   0.0000   0.0000
     0.0000   0.0000   0.0000   0.0000   0.0000   0.0000   0.0000   0.0000
     0.0000   0.0000   0.0000   0.0000   0.0000   0.0000   0.0000   0.0000
     0.0000   0.0000   0.0000   0.0000   0.0000   0.0000   0.0000   0.0000
     0.0000   0.0000   0.0000   0.0000   0.0000   0.0000   0.0000   0.0000
     0.0000   0.0000   0.0000   0.0000   0.0000   0.0000   0.0000   0.0000
     0.0000   0.0000   0.0000   0.0000   0.0000   0.0000   0.0000   0.0000
     0.0000   0.0000   0.0000   0.0000   0.0000   0.0000   0.0000   0.0000
     0.0000   0.0000   0.0000   0.0000   0.0000   0.0000   0.0000   0.0000
     0.0000   0.0000   0.0000   0.0000   0.0000   0.0000   0.0000   0.0000
     0.0000   0.0000   0.0000   0.0000   0.0000   0.0000   0.0000   0.0000
     0.0000   0.0000   0.0000   0.0000   0.0000   0.0000   0.0000   0.0000
     0.0000   0.0000   0.0000   0.0000   0.0000   0.0000   0.0000   0.0000
     0.0000   0.0000   0.0000   0.0000   0.0000   0.0000   0.0000   0.0000
     0.0000   0.0000   0.0000   0.0000   0.0000   0.0000   0.0000   0.0000
     0.0000   0.0000   0.0000   0.0000   0.0000   0.0000   0.0000   0.0000
     0.0000   0.0000   0.0000   0.0000   0.0000   0.0000   0.0000   0.0000
     0.0000   0.0000   0.0000   0.0000   0.0000   0.0000   0.0000   0.0000
     0.0000   0.0000   0.0000   0.0000   0.0000   0.0000   0.0000   0.0000
     0.0000   0.0000   0.0000   0.0000   0.0000   0.0000   0.0000   0.0000
     0.0000   0.0000   0.0000   0.0000   0.0000   0.0000   0.0000   0.0000
     0.0000   0.0000   0.0000   0.0000   0.0000   0.0000   0.0000   0.0000
     0.0000   0.0000   0.0000   0.0000   0.0000   0.0000   0.0000   0.0000
     0.0000   0.0000   0.0000   0.0000   0.0000   0.0000   0.0000   0.0000
     0.0000   0.0000   0.0000   0.0000   0.0000   0.0000   0.0000   0.0000
     0.0000   0.0000   0.0000   0.0000   0.0000   0.0000   0.0000   0.0000
     0.0000   0.0000   0.0000   0.0000   0.0000   0.0000   0.0000   0.0000
     0.0000   0.0000   0.0000   0.0000   0.0000   0.0000   0.0000   0.0000
     0.0000   0.0000   0.0000   0.0000   0.0000   0.0000   0.0000   0.0000
     0.0000   0.0000   0.0000   0.0000   0.0000   0.0000   0.0000   0.0000
     0.0000   0.0000   0.0000   0.0000   0.0000   0.0000   0.0000   0.0000
     0.0000   0.0000   0.0000   0.0000   0.0000   0.0000   0.0000   0.0000
     0.0000   0.0000   0.0000   0.0000   0.0000   0.0000   0.0000   0.0000
     0.0000   0.0000   0.0000   0.0000   0.0000   0.0000   0.0000   0.0000
     0.0000   0.0000   0.0000   0.0000   0.0000   0.0000   0.0000   0.0000
     0.0000   0.0000   0.0000   0.0000   0.0000   0.0000   0.0000   0.0000
     0.0000   0.0000   0.0000   0.0000   0.0000   0.0000   0.0000   0.0000
     0.0000   0.0000   0.0000   0.0000   0.0000   0.0000   0.0000   0.0000
     0.0000   0.0000   0.0000   0.0000   0.0000   0.0000   0.0000   0.0000
     0.0000   0.0000   0.0000   0.0000   0.0000   0.0000   0.0000   0.0000
     0.0000   0.0000   0.0000   0.0000   0.0000   0.0000   0.0000   0.0000
     0.0000   0.0000   0.0000   0.0000   0.0000   0.0000   0.0000   0.0000
     0.0000   0.0000   0.0000   0.0000   0.0000   0.0000   0.0000   0.0000
     0.0000   0.0000   0.0000   0.0000   0.0000   0.0000   0.0000   0.0000
     0.0000   0.0000   0.0000   0.0000   0.0000   0.0000   0.0000   0.0000
     0.0000   0.0000   0.0000   0.0000   0.0000   0.0000   0.0000   0.0000
     0.0000   0.0000   0.0000   0.0000   0.0000   0.0000   0.0000   0.0000
     0.0000   0.0000   0.0000   0.0000   0.0000   0.0000   0.0000   0.0000
     0.0000   0.0000   0.0000   0.0000   0.0000   0.0000   0.0000   0.0000
     0.0000   0.0000   0.0000   0.0000   0.0000   0.0000   0.0000   0.0000
     0.0000   0.0000   0.0000   0.0000   0.0000   0.0000   0.0000   0.0000
     0.0000   0.0000   0.0000   0.0000   0.0000   0.0000   0.0000   0.0000
     0.0000   0.0000   0.0000   0.0000   0.0000   0.0000   0.0000   0.0000
     0.0000   0.0000   0.0000   0.0000   0.0000   0.0000   0.0000   0.0000
     0.0000   0.0000   0.0000   0.0000   0.0000   0.0000   0.0000   0.0000
     0.0000   0.0000   0.0000   0.0000   0.0000   0.0000   0.0000   0.0000
     0.0000   0.0000   0.0000   0.0000   0.0000   0.0000   0.0000   0.0000
     0.0000   0.0000   0.0000   0.0000   0.0000   0.0000   0.0000   0.0000
     0.0000   0.0000   0.0000   0.0000   0.0000   0.0000   0.0000   0.0000
     0.0000   0.0000   0.0000   0.0000   0.0000   0.0000   0.0000   0.0000
     0.0000   0.0000   0.0000   0.0000   0.0000   0.0000   0.0000   0.0000
     0.0000   0.0000   0.0000   0.0000   0.0000   0.0000   0.0000   0.0000
     0.0000   0.0000   0.0000   0.0000   0.0000   0.0000   0.0000   0.0000
     0.0000   0.0000   0.0000   0.0000   0.0000   0.0000   0.0000   0.0000
     0.0000   0.0000   0.0000   0.0000   0.0000   0.0000   0.0000   0.0000
     0.0000   0.0000   0.0000   0.0000   0.0000   0.0000   0.0000   0.0000
     0.0000   0.0000   0.0000   0.0000   0.0000   0.0000   0.0000   0.0000
     0.0000   0.0000   0.0000   0.0000   0.0000   0.0000   0.0000   0.0000

          k = 0.0000 0.2824 0.0000 ( 49473 PWs)   bands (ev):

   -20.2835 -19.7980 -19.7881 -18.3796 -18.3204 -16.1661 -15.9448 -15.5737
   -15.1505 -15.1246 -14.0417 -13.9771 -13.4829 -13.2795 -13.1276 -13.0430
   -12.9874 -11.7962 -11.4737 -11.0451 -10.9620  -9.9651  -9.4307  -9.3637
    -9.0821  -8.9650  -8.7153  -8.6087  -8.1619  -7.7963  -7.2902  -7.0347
    -6.9751  -6.8603  -6.4496  -5.9081  -5.6130  -5.1951  -4.9374  -4.8163
    -4.6303  -4.0526  -3.9502  -3.3679  -3.2243  -2.7752  -2.1976  -2.0443
    -1.3749  -0.0398   0.3697   0.6546   0.9588   1.0885   2.0413   2.1550
     2.6953   2.9713   3.3502   3.6533   3.7786   3.9800   4.2497   4.7774
     4.8309   5.0146   5.0646   5.5706   5.5878   5.8609   6.1165   6.3632
     6.8340   6.9798   6.9980   7.1687   7.4236   7.5638   7.7394   7.7451
     7.8050   8.1138   8.3285   8.3664   8.4571   8.5539   8.5667   8.6388
     8.8059   8.9361   8.9835   9.0603   9.1908   9.2327   9.2509   9.3925
     9.5961   9.6142   9.7378   9.8460  10.0018  10.2083  10.2624  10.3164
    10.3444  10.3731  10.4267  10.4500  10.4762  10.7091  10.8460  10.8529
    10.9444  11.1159  11.1802  11.3013  11.3783  11.5232  11.5429  11.6141
    11.6742  11.7559  11.8997  12.0273  12.0649  12.1135  12.1882  12.2326
    12.4305  12.5211  12.5610  12.6469  12.6873  12.8241  12.9819  13.0345
    13.0845  13.0911  13.4290  13.5070  13.5441  13.5729  13.5862  13.6560
    13.8477  13.9417  14.0057  14.0189  14.0551  14.0642  14.1891  14.2805
    14.2919  14.4207  14.4732  14.6213  14.6231  14.8066  14.9271  15.1094
    15.1503  15.2570  15.3247  15.3915  15.3935  15.4347  15.5021  15.5396
    15.7446  15.7613  15.9133  15.9524  15.9774  16.0455  16.0953  16.2379
    16.3347  16.4154  16.5534  16.7318  16.7370  16.8864  16.8977  16.9882
    17.0743  17.1174  17.1913  17.2900  17.3953  17.4377  17.4424  17.4720
    17.5943  17.6285  17.8126  18.0568  18.1744  18.3577  18.3860  18.5538
    18.5603  18.6083  18.6401  18.6949  18.8499  19.0556  19.1024  19.1490
    19.1523  19.2796  19.4660  19.6188  19.7076  19.9277  20.0102  20.0387
    20.0469  20.1244  20.1610  20.2687  20.2810  20.3062  20.4581  20.5319
[...]
     1.0000   1.0000   1.0000   1.0000   1.0000   1.0000   1.0000   1.0000
     1.0000   1.0000   1.0000   1.0000   1.0000   1.0000   1.0000   1.0000
     1.0000   1.0000   1.0000   1.0000   1.0000   1.0000   1.0000   1.0000
     1.0000   0.0000   0.0000   0.0000   0.0000   0.0000   0.0000   0.0000
     0.0000   0.0000   0.0000   0.0000   0.0000   0.0000   0.0000   0.0000
     0.0000   0.0000   0.0000   0.0000   0.0000   0.0000   0.0000   0.0000
     0.0000   0.0000   0.0000   0.0000   0.0000   0.0000   0.0000   0.0000
     0.0000   0.0000   0.0000   0.0000   0.0000   0.0000   0.0000   0.0000
     0.0000   0.0000   0.0000   0.0000   0.0000   0.0000   0.0000   0.0000
     0.0000   0.0000   0.0000   0.0000   0.0000   0.0000   0.0000   0.0000
     0.0000   0.0000   0.0000   0.0000   0.0000   0.0000   0.0000   0.0000
     0.0000   0.0000   0.0000   0.0000   0.0000   0.0000   0.0000   0.0000
     0.0000   0.0000   0.0000   0.0000   0.0000   0.0000   0.0000   0.0000
     0.0000   0.0000   0.0000   0.0000   0.0000   0.0000   0.0000   0.0000
     0.0000   0.0000   0.0000   0.0000   0.0000   0.0000   0.0000   0.0000
     0.0000   0.0000   0.0000   0.0000   0.0000   0.0000   0.0000   0.0000
     0.0000   0.0000   0.0000   0.0000   0.0000   0.0000   0.0000   0.0000
     0.0000   0.0000   0.0000   0.0000   0.0000   0.0000   0.0000   0.0000
     0.0000   0.0000   0.0000   0.0000   0.0000   0.0000   0.0000   0.0000
     0.0000   0.0000   0.0000   0.0000   0.0000   0.0000   0.0000   0.0000
     0.0000   0.0000   0.0000   0.0000   0.0000   0.0000   0.0000   0.0000
     0.0000   0.0000   0.0000   0.0000   0.0000   0.0000   0.0000   0.0000
     0.0000   0.0000   0.0000   0.0000   0.0000   0.0000   0.0000   0.0000
     0.0000   0.0000   0.0000   0.0000   0.0000   0.0000   0.0000   0.0000
     0.0000   0.0000   0.0000   0.0000   0.0000   0.0000   0.0000   0.0000
     0.0000   0.0000   0.0000   0.0000   0.0000   0.0000   0.0000   0.0000
     0.0000   0.0000   0.0000   0.0000   0.0000   0.0000   0.0000   0.0000
     0.0000   0.0000   0.0000   0.0000   0.0000   0.0000   0.0000   0.0000
     0.0000   0.0000   0.0000   0.0000   0.0000   0.0000   0.0000   0.0000
     0.0000   0.0000   0.0000   0.0000   0.0000   0.0000   0.0000   0.0000
     0.0000   0.0000   0.0000   0.0000   0.0000   0.0000   0.0000   0.0000
     0.0000   0.0000   0.0000   0.0000   0.0000   0.0000   0.0000   0.0000
     0.0000   0.0000   0.0000   0.0000   0.0000   0.0000   0.0000   0.0000
     0.0000   0.0000   0.0000   0.0000   0.0000   0.0000   0.0000   0.0000
     0.0000   0.0000   0.0000   0.0000   0.0000   0.0000   0.0000   0.0000
     0.0000   0.0000   0.0000   0.0000   0.0000   0.0000   0.0000   0.0000
     0.0000   0.0000   0.0000   0.0000   0.0000   0.0000   0.0000   0.0000
     0.0000   0.0000   0.0000   0.0000   0.0000   0.0000   0.0000   0.0000
     0.0000   0.0000   0.0000   0.0000   0.0000   0.0000   0.0000   0.0000
     0.0000   0.0000   0.0000   0.0000   0.0000   0.0000   0.0000   0.0000
     0.0000   0.0000   0.0000   0.0000   0.0000   0.0000   0.0000   0.0000
     0.0000   0.0000   0.0000   0.0000   0.0000   0.0000   0.0000   0.0000
     0.0000   0.0000   0.0000   0.0000   0.0000   0.0000   0.0000   0.0000
     0.0000   0.0000   0.0000   0.0000   0.0000   0.0000   0.0000   0.0000
     0.0000   0.0000   0.0000   0.0000   0.0000   0.0000   0.0000   0.0000
     0.0000   0.0000   0.0000   0.0000   0.0000   0.0000   0.0000   0.0000
     0.0000   0.0000   0.0000   0.0000   0.0000   0.0000   0.0000   0.0000
     0.0000   0.0000   0.0000   0.0000   0.0000   0.0000   0.0000   0.0000
     0.0000   0.0000   0.0000   0.0000   0.0000   0.0000   0.0000   0.0000
     0.0000   0.0000   0.0000   0.0000   0.0000   0.0000   0.0000   0.0000
     0.0000   0.0000   0.0000   0.0000   0.0000   0.0000   0.0000   0.0000
     0.0000   0.0000   0.0000   0.0000   0.0000   0.0000   0.0000   0.0000
     0.0000   0.0000   0.0000   0.0000   0.0000   0.0000   0.0000   0.0000
     0.0000   0.0000   0.0000   0.0000   0.0000   0.0000   0.0000   0.0000
     0.0000   0.0000   0.0000   0.0000   0.0000   0.0000   0.0000   0.0000
     0.0000   0.0000   0.0000   0.0000   0.0000   0.0000   0.0000   0.0000
     0.0000   0.0000   0.0000   0.0000   0.0000   0.0000   0.0000   0.0000
     0.0000   0.0000   0.0000   0.0000   0.0000   0.0000   0.0000   0.0000
     0.0000   0.0000   0.0000   0.0000   0.0000   0.0000   0.0000   0.0000
     0.0000   0.0000   0.0000   0.0000   0.0000   0.0000   0.0000   0.0000
     0.0000   0.0000   0.0000   0.0000   0.0000   0.0000   0.0000   0.0000
     0.0000   0.0000   0.0000   0.0000   0.0000   0.0000   0.0000   0.0000
     0.0000   0.0000   0.0000   0.0000   0.0000   0.0000   0.0000   0.0000
     0.0000   0.0000   0.0000   0.0000   0.0000   0.0000   0.0000   0.0000
     0.0000   0.0000   0.0000   0.0000   0.0000   0.0000   0.0000   0.0000
     0.0000   0.0000   0.0000   0.0000   0.0000   0.0000   0.0000   0.0000
     0.0000   0.0000   0.0000   0.0000   0.0000   0.0000   0.0000   0.0000
     0.0000   0.0000   0.0000   0.0000   0.0000   0.0000   0.0000   0.0000
     0.0000   0.0000   0.0000   0.0000   0.0000   0.0000   0.0000   0.0000
     0.0000   0.0000   0.0000   0.0000   0.0000   0.0000   0.0000   0.0000
     0.0000   0.0000   0.0000   0.0000   0.0000   0.0000   0.0000   0.0000
     0.0000   0.0000   0.0000   0.0000   0.0000   0.0000   0.0000   0.0000

          k =-0.5000-1.6947 0.0000 ( 49532 PWs)   bands (ev):

   -18.8676 -18.7565 -18.7447 -18.5825 -17.8540 -17.8358 -17.7206 -17.6766
   -16.0278 -16.0194 -15.9705 -15.8309 -13.2992 -13.1686 -13.0179 -12.6751
   -10.3358 -10.2884  -9.9411  -9.5657  -8.7192  -8.5515  -8.2857  -8.2709
    -7.7507  -7.5836  -7.4638  -7.4386  -7.4172  -7.3917  -7.2810  -7.2641
    -7.1046  -6.6469  -6.6138  -6.5670  -6.4160  -6.3218  -6.2906  -6.2869
    -6.0048  -5.9033  -5.3346  -5.3210  -4.4421  -4.2253  -3.5767  -3.4312
    -2.9505   0.9459   1.5874   1.8574   2.7203   2.7363   3.9407   4.1541
     4.3388   4.3510   4.4981   4.5566   4.9977   5.0038   5.3318   5.4865
     5.5121   5.5651   5.8090   5.8343   5.8810   5.9088   6.0110   6.0165
     6.0316   6.1267   6.2564   6.3736   6.3782   6.7338   6.7501   6.8017
     6.8420   6.8960   6.9087   7.1681   7.3209   7.5944   7.6951   7.7089
     7.7777   8.0258   8.1138   8.1795   8.3091   8.3656   8.3698   8.3806
     8.5744   8.6256   8.7907   8.8577   9.0010   9.1267   9.3597   9.4095
     9.4495   9.4502   9.5559   9.5942  10.0542  10.2023  10.2661  10.2895
    10.3604  10.5134  10.5442  10.5508  10.6881  10.7649  10.8641  11.1265
    11.2390  11.2491  11.2549  11.3969  11.5036  11.7517  11.8013  11.8563
    11.8868  12.0569  12.2343  12.3363  12.4911  12.5107  12.5229  12.6147
    12.8830  13.0787  13.1014  13.1532  13.5191  13.5292  13.5963  13.6608
    14.0616  14.2863  14.2998  14.4510  14.5100  14.5427  14.5650  14.6372
    14.7451  14.7616  14.8455  14.9995  15.2600  15.2931  15.4122  15.4208
    15.5314  15.5946  15.6630  15.6686  15.7605  16.0130  16.2439  16.2492
    16.3321  16.5017  16.5099  16.5368  16.8178  17.0123  17.2099  17.3506
    17.3929  17.4000  17.5698  17.7059  17.7554  17.8175  17.8232  17.9771
    18.0165  18.0192  18.1353  18.2736  18.3074  18.3525  18.3942  18.4707
    18.5522  18.6818  18.6863  18.8308  18.8483  18.9071  19.0532  19.1573
    19.3467  19.3575  19.5534  19.6201  19.7600  19.8090  19.8420  19.9740
    20.0535  20.1240  20.1321  20.4032  20.5586  20.5879  20.6040  20.6608
    20.7047  20.7336  20.9686  20.9813  20.9938  21.1107  21.1912  21.2064
    21.3268  21.3705  21.4291  21.5992  21.6074  21.8087  21.8275  21.9270
    22.1136  22.1385  22.3603  22.3739  22.3967  22.4728  22.5493  22.6029
    22.6126  22.7223  22.7271  22.7997  22.8748  22.8852  22.9230  22.9521
    23.2024  23.2478  23.2502  23.4756  23.5816  23.6601  23.6971  23.8560
    23.9159  23.9296  24.0262  24.0411  24.0979  24.1634  24.1805  24.4036
    24.4484  24.5320  24.5447  24.6069  24.7045  24.7762  24.7994  24.8469
    24.8537  24.9105  24.9868  25.1132  25.1146  25.1288  25.1992  25.2912
    25.3338  25.3439  25.3596  25.3933  25.4836  25.5910  25.6511  25.7887
    25.8712  25.9002  25.9054  25.9734  26.0717  26.1638  26.1879  26.3177
    26.3218  26.3769  26.4032  26.4925  26.5564  26.6083  26.6621  26.7431
    26.7795  26.8063  26.9616  26.9949  27.0246  27.0357  27.0375  27.1291
    27.2086  27.2319  27.4726  27.4907  27.5411  27.6053  27.6682  27.6731
    27.6974  27.7271  27.7917  27.8354  27.9195  27.9389  27.9912  28.0207
    28.1126  28.1878  28.2462  28.2834  28.3367  28.5578  28.5692  28.6461
    28.6608  28.8432  28.8638  28.8872  28.9487  29.0483  29.1563  29.1623
    29.3611  29.4168  29.4698  29.6023  29.6275  29.7143  29.7532  29.7845
    29.8365  29.9158  29.9379  30.1657  30.3044  30.3332  30.4329  30.4413
    30.6120  30.6247  30.6845  30.7555  30.7589  30.7597  30.8061  30.9991
    31.0378  31.1522  31.2125  31.2155  31.2617  31.3308  31.4506  31.5614
    31.5769  31.5953  31.8134  31.8793  31.9266  31.9635  32.0323  32.1430
    32.2131  32.2174  32.3124  32.4453  32.4572  32.5912  32.6040  32.6696
    32.8043  32.9136  33.2142  33.2798  33.3148  33.4065  33.4464  33.5774
    33.7357  33.7968  33.9112  33.9436  34.0175  34.0405  34.0601  34.0621
    34.1397  34.3286  34.3464  34.4985  34.5252  34.5289  34.5815  34.6705
    34.7134  34.7486  34.7835  34.8823  34.8827  34.9698  35.0262  35.0925
    35.1882  35.2598  35.2810  35.2830  35.3544  35.4079  35.4222  35.6203
    35.6573  35.6910  35.7125  35.7882  35.8228  35.8594  35.9219  35.9648
    36.0542  36.2827  36.3019  36.3232  36.3472  36.4064  36.4690  36.5925
    36.6904  36.6970  36.7321  36.7462  36.8106  36.8712  36.9116  36.9269
    36.9612  36.9826  37.0700  37.0955  37.1228  37.2402  37.3500  37.4890
    37.5329  37.6057  37.6890  37.7277  37.7697  38.0034  38.0273  38.0757
    38.2005  38.2624  38.2729  38.3332  38.3439  38.4168  38.4763  38.5666
    38.5959  38.6882  38.7459  38.8907  38.9313  38.9594  39.0183  39.0269
    39.0352  39.0617  39.2901  39.3473  39.3698  39.5533  39.5547  39.7378
    39.7511  39.8339  39.8382  39.9500  40.1247  40.1837  40.1944  40.3749
    40.4752  40.4981  40.5765  40.6991  40.7525  40.7635  40.7940  40.8942
    41.0262  41.1302  41.1440  41.2988  41.3127  41.3424  41.3553  41.4072
    41.4219  41.4368  41.5629  41.6587  41.7090  41.8181  41.8744  41.9164
    41.9710  42.0213  42.0791  42.0812  42.1506  42.1832  42.2368  42.2894
    42.3868  42.4124  42.4458  42.5269  42.6083  42.6827  42.7268  42.7746
    42.8528  42.8983  42.9054  42.9465  42.9592  43.0819  43.0939  43.0982
    43.1331  43.2124  43.3370  43.3769  43.4401  43.5401  43.6899  43.6904
    43.7097  43.8135  43.8254  43.8277  43.9815  43.9882  43.9895  44.0891
    44.1910  44.3048  44.3157  44.3726  44.4917  44.4931  44.5043  44.5774
    44.6005  44.6657  44.8506  44.8788  44.9091  45.0041  45.0233  45.0694
    45.2216  45.2311  45.2800  45.3163  45.4881  45.5078  45.7274  45.8018
    45.8031  45.8742  45.8902  45.9670  46.0320  46.1373  46.2763  46.3823

     occupation numbers 
     1.0000   1.0000   1.0000   1.0000   1.0000   1.0000   1.0000   1.0000
     1.0000   1.0000   1.0000   1.0000   1.0000   1.0000   1.0000   1.0000
     1.0000   1.0000   1.0000   1.0000   1.0000   1.0000   1.0000   1.0000
     1.0000   1.0000   1.0000   1.0000   1.0000   1.0000   1.0000   1.0000
     1.0000   1.0000   1.0000   1.0000   1.0000   1.0000   1.0000   1.0000
     1.0000   1.0000   1.0000   1.0000   1.0000   1.0000   1.0000   1.0000
     1.0000   0.0000   0.0000   0.0000   0.0000   0.0000   0.0000   0.0000
     0.0000   0.0000   0.0000   0.0000   0.0000   0.0000   0.0000   0.0000
     0.0000   0.0000   0.0000   0.0000   0.0000   0.0000   0.0000   0.0000
     0.0000   0.0000   0.0000   0.0000   0.0000   0.0000   0.0000   0.0000
     0.0000   0.0000   0.0000   0.0000   0.0000   0.0000   0.0000   0.0000
     0.0000   0.0000   0.0000   0.0000   0.0000   0.0000   0.0000   0.0000
     0.0000   0.0000   0.0000   0.0000   0.0000   0.0000   0.0000   0.0000
     0.0000   0.0000   0.0000   0.0000   0.0000   0.0000   0.0000   0.0000
     0.0000   0.0000   0.0000   0.0000   0.0000   0.0000   0.0000   0.0000
     0.0000   0.0000   0.0000   0.0000   0.0000   0.0000   0.0000   0.0000
     0.0000   0.0000   0.0000   0.0000   0.0000   0.0000   0.0000   0.0000
     0.0000   0.0000   0.0000   0.0000   0.0000   0.0000   0.0000   0.0000
     0.0000   0.0000   0.0000   0.0000   0.0000   0.0000   0.0000   0.0000
     0.0000   0.0000   0.0000   0.0000   0.0000   0.0000   0.0000   0.0000
     0.0000   0.0000   0.0000   0.0000   0.0000   0.0000   0.0000   0.0000
     0.0000   0.0000   0.0000   0.0000   0.0000   0.0000   0.0000   0.0000
     0.0000   0.0000   0.0000   0.0000   0.0000   0.0000   0.0000   0.0000
     0.0000   0.0000   0.0000   0.0000   0.0000   0.0000   0.0000   0.0000
     0.0000   0.0000   0.0000   0.0000   0.0000   0.0000   0.0000   0.0000
     0.0000   0.0000   0.0000   0.0000   0.0000   0.0000   0.0000   0.0000
     0.0000   0.0000   0.0000   0.0000   0.0000   0.0000   0.0000   0.0000
     0.0000   0.0000   0.0000   0.0000   0.0000   0.0000   0.0000   0.0000
     0.0000   0.0000   0.0000   0.0000   0.0000   0.0000   0.0000   0.0000
     0.0000   0.0000   0.0000   0.0000   0.0000   0.0000   0.0000   0.0000
     0.0000   0.0000   0.0000   0.0000   0.0000   0.0000   0.0000   0.0000
     0.0000   0.0000   0.0000   0.0000   0.0000   0.0000   0.0000   0.0000
     0.0000   0.0000   0.0000   0.0000   0.0000   0.0000   0.0000   0.0000
     0.0000   0.0000   0.0000   0.0000   0.0000   0.0000   0.0000   0.0000
     0.0000   0.0000   0.0000   0.0000   0.0000   0.0000   0.0000   0.0000
     0.0000   0.0000   0.0000   0.0000   0.0000   0.0000   0.0000   0.0000
     0.0000   0.0000   0.0000   0.0000   0.0000   0.0000   0.0000   0.0000
     0.0000   0.0000   0.0000   0.0000   0.0000   0.0000   0.0000   0.0000
     0.0000   0.0000   0.0000   0.0000   0.0000   0.0000   0.0000   0.0000
     0.0000   0.0000   0.0000   0.0000   0.0000   0.0000   0.0000   0.0000
     0.0000   0.0000   0.0000   0.0000   0.0000   0.0000   0.0000   0.0000
     0.0000   0.0000   0.0000   0.0000   0.0000   0.0000   0.0000   0.0000
     0.0000   0.0000   0.0000   0.0000   0.0000   0.0000   0.0000   0.0000
     0.0000   0.0000   0.0000   0.0000   0.0000   0.0000   0.0000   0.0000
     0.0000   0.0000   0.0000   0.0000   0.0000   0.0000   0.0000   0.0000
     0.0000   0.0000   0.0000   0.0000   0.0000   0.0000   0.0000   0.0000
     0.0000   0.0000   0.0000   0.0000   0.0000   0.0000   0.0000   0.0000
     0.0000   0.0000   0.0000   0.0000   0.0000   0.0000   0.0000   0.0000
     0.0000   0.0000   0.0000   0.0000   0.0000   0.0000   0.0000   0.0000
     0.0000   0.0000   0.0000   0.0000   0.0000   0.0000   0.0000   0.0000
     0.0000   0.0000   0.0000   0.0000   0.0000   0.0000   0.0000   0.0000
     0.0000   0.0000   0.0000   0.0000   0.0000   0.0000   0.0000   0.0000
     0.0000   0.0000   0.0000   0.0000   0.0000   0.0000   0.0000   0.0000
     0.0000   0.0000   0.0000   0.0000   0.0000   0.0000   0.0000   0.0000
     0.0000   0.0000   0.0000   0.0000   0.0000   0.0000   0.0000   0.0000
     0.0000   0.0000   0.0000   0.0000   0.0000   0.0000   0.0000   0.0000
     0.0000   0.0000   0.0000   0.0000   0.0000   0.0000   0.0000   0.0000
     0.0000   0.0000   0.0000   0.0000   0.0000   0.0000   0.0000   0.0000
     0.0000   0.0000   0.0000   0.0000   0.0000   0.0000   0.0000   0.0000
     0.0000   0.0000   0.0000   0.0000   0.0000   0.0000   0.0000   0.0000
     0.0000   0.0000   0.0000   0.0000   0.0000   0.0000   0.0000   0.0000
     0.0000   0.0000   0.0000   0.0000   0.0000   0.0000   0.0000   0.0000
     0.0000   0.0000   0.0000   0.0000   0.0000   0.0000   0.0000   0.0000
     0.0000   0.0000   0.0000   0.0000   0.0000   0.0000   0.0000   0.0000
     0.0000   0.0000   0.0000   0.0000   0.0000   0.0000   0.0000   0.0000
     0.0000   0.0000   0.0000   0.0000   0.0000   0.0000   0.0000   0.0000
     0.0000   0.0000   0.0000   0.0000   0.0000   0.0000   0.0000   0.0000
     0.0000   0.0000   0.0000   0.0000   0.0000   0.0000   0.0000   0.0000
     0.0000   0.0000   0.0000   0.0000   0.0000   0.0000   0.0000   0.0000
     0.0000   0.0000   0.0000   0.0000   0.0000   0.0000   0.0000   0.0000
     0.0000   0.0000   0.0000   0.0000   0.0000   0.0000   0.0000   0.0000
     0.0000   0.0000   0.0000   0.0000   0.0000   0.0000   0.0000   0.0000
     0.0000   0.0000   0.0000   0.0000   0.0000   0.0000   0.0000   0.0000
     0.0000   0.0000   0.0000   0.0000   0.0000   0.0000   0.0000   0.0000
     0.0000   0.0000   0.0000   0.0000   0.0000   0.0000   0.0000   0.0000

     highest occupied, lowest unoccupied level (ev):    -0.7390   -0.6613

     Writing all to output data dir ./kpoints_12x36-nbnds_600.save/
 
     init_run     :      0.45s CPU      0.72s WALL (       1 calls)
     electrons    :    341.77s CPU    939.00s WALL (       1 calls)

     Called by init_run:
     wfcinit      :      0.00s CPU      0.00s WALL (       1 calls)
                                        0.00s GPU  (       1 calls)
     wfcinit:atom :      0.07s CPU      0.14s WALL (     133 calls)
                                        0.14s GPU  (     133 calls)
     wfcinit:wfcr :     14.33s CPU     16.86s WALL (     133 calls)
                                       16.86s GPU  (     133 calls)
     potinit      :      0.01s CPU      0.14s WALL (       1 calls)
     hinit0       :      0.21s CPU      0.26s WALL (       1 calls)

     Called by electrons:
     c_bands      :    341.76s CPU    938.97s WALL (       1 calls)
     v_of_rho     :      0.01s CPU      0.02s WALL (       1 calls)
     v_h          :      0.00s CPU      0.00s WALL (       1 calls)
     v_xc         :      0.00s CPU      0.01s WALL (       1 calls)

     Called by c_bands:
     init_us_2    :      0.07s CPU      0.11s WALL (     133 calls)
     init_us_2:gp :      0.07s CPU      0.11s WALL (     133 calls)
     cegterg      :    312.99s CPU    330.46s WALL (     272 calls)

     Called by sum_band:

     Called by *egterg:
     cdiaghg      :    123.65s CPU    125.14s WALL (    5193 calls)
                                      125.10s GPU  (    5193 calls)
     cegterg:over :     43.13s CPU     49.56s WALL (    5060 calls)
     cegterg:upda :     19.78s CPU     19.94s WALL (    5060 calls)
     cegterg:last :     13.06s CPU     13.19s WALL (    2007 calls)
     h_psi        :    116.79s CPU    125.94s WALL (    5465 calls)
                                      125.86s GPU  (    5465 calls)
     g_psi        :      0.02s CPU      0.82s WALL (    5060 calls)
                                        0.78s GPU  (    5060 calls)

     Called by h_psi:
     h_psi:calbec :      7.55s CPU      9.00s WALL (    5465 calls)
                                        8.96s GPU  (    5465 calls)
     vloc_psi     :    103.24s CPU    110.89s WALL (    5465 calls)
                                      110.84s GPU  (    5465 calls)
     add_vuspsi   :      3.81s CPU      5.38s WALL (    5465 calls)
                                        5.34s GPU  (    5465 calls)

     General routines
     calbec       :      7.48s CPU      8.88s WALL (    5465 calls)
     fft          :      0.02s CPU      0.07s WALL (      11 calls)
                                        0.07s GPU  (      11 calls)
     fftw         :     57.91s CPU     81.46s WALL (  167476 calls)
                                       80.15s GPU  (  167476 calls)
     davcio       :      0.65s CPU   1146.56s WALL (     266 calls)
 
     Parallel routines
 
     PWSCF        :   6m 1.00s CPU  28m 1.13s WALL

 
   This run was terminated on:  20:58:26  28Mar2025            

=------------------------------------------------------------------------------=
   JOB DONE.
=------------------------------------------------------------------------------=
