
     Program PWSCF v.7.2 starts on  6Feb2025 at 15: 2:35 

     This program is part of the open-source Quantum ESPRESSO suite
     for quantum simulation of materials; please cite
         "P. Giannozzi et al., J. Phys.:Condens. Matter 21 395502 (2009);
         "P. Giannozzi et al., J. Phys.:Condens. Matter 29 465901 (2017);
         "P. Giannozzi et al., J. Chem. Phys. 152 154105 (2020);
          URL http://www.quantum-espresso.org", 
     in publications or presentations arising from this work. More details at
     http://www.quantum-espresso.org/quote

     Parallel version (MPI & OpenMP), running on      32 processor cores
     Number of MPI processes:                 4
     Threads/MPI process:                     8

     MPI processes distributed on     1 nodes
     502887 MiB available memory on the printing compute node when the environment starts
 
     Reading input from kpoints_20x40-nbnds_600.in

     Current dimensions of program PWSCF are:
     Max number of different atomic species (ntypx) = 10
     Max number of k-points (npk) =  40000
     Max angular momentum in pseudopotentials (lmaxx) =  4

     Atomic positions and unit cell read from directory:
     ./kpoints_20x40-nbnds_600.save/
     Atomic positions from file used, from input discarded
 
     Message from routine setup:
     using ibrav=0 with symmetry is DISCOURAGED, use correct ibrav instead
 
     R & G space division:  proc/nbgrp/npool/nimage =       4
     Subspace diagonalization in iterative solution of the eigenvalue problem:
     a serial algorithm will be used

 
     Parallelization info
     --------------------
     sticks:   dense  smooth     PW     G-vecs:    dense   smooth      PW
     Min         626     626    174                50390    50390    7382
     Max         627     627    175                50393    50393    7385
     Sum        2505    2505    697               201565   201565   29531
 
     Using Slab Decomposition
 


     bravais-lattice index     =            0
     lattice parameter (alat)  =      13.9152  a.u.
     unit-cell volume          =    2547.7996 (a.u.)^3
     number of atoms/cell      =           14
     number of atomic types    =            2
     number of electrons       =        50.00
     number of Kohn-Sham states=          600
     kinetic-energy cutoff     =      70.0000  Ry
     charge density cutoff     =     280.0000  Ry
     Exchange-correlation= PBE
                           (   1   4   3   4   0   0   0)

     GPU acceleration is ACTIVE.
     GPU-aware MPI enabled


     GPU used by master process:

        Device Number: 0
        Device name: NVIDIA A100-SXM-64GB
        Compute capability : 80
        Ratio of single to double precision performance  : 2
        Memory Clock Rate (KHz): 1593000
        Memory Bus Width (bits): 4096
        Peak Memory Bandwidth (GB/s): ******

     celldm(1)=  13.915166  celldm(2)=   0.000000  celldm(3)=   0.000000
     celldm(4)=   0.000000  celldm(5)=   0.000000  celldm(6)=   0.000000

     crystal axes: (cart. coord. in units of alat)
               a(1) = (   1.000000   0.000000   0.000000 )  
               a(2) = (   0.000000   0.580241   0.000000 )  
               a(3) = (   0.000000   0.000000   1.629640 )  

     reciprocal axes: (cart. coord. in units 2 pi/alat)
               b(1) = (  1.000000 -0.000000  0.000000 )  
               b(2) = ( -0.000000  1.723422  0.000000 )  
               b(3) = (  0.000000  0.000000  0.613632 )  


     PseudoPot. # 1 for C  read from file:
     ../pseudos/C_ONCV_PBE.upf
     MD5 check sum: 34a24e64c0a39f27c6c36b90a16ac686
     Pseudo is Norm-conserving + core correction, Zval =  4.0
     Generated using ONCVPSP code by D. R. Hamann
     Using radial grid of 1248 points,  4 beta functions with: 
                l(1) =   0
                l(2) =   0
                l(3) =   1
                l(4) =   1

     PseudoPot. # 2 for H  read from file:
     ../pseudos/H_ONCV_PBE.upf
     MD5 check sum: e96aa7e3e4a958db16958554ea960e2a
     Pseudo is Norm-conserving, Zval =  1.0
     Generated using ONCVPSP code by D. R. Hamann
     Using radial grid of 1166 points,  3 beta functions with: 
                l(1) =   0
                l(2) =   0
                l(3) =   1

     atomic species   valence    mass     pseudopotential
        C              4.00    12.01100     C ( 1.00)
        H              1.00     1.00000     H ( 1.00)

      2 Sym. Ops. (no inversion) found


                                    s                        frac. trans.

      isym =  1     identity                                     

 cryst.   s( 1) = (     1          0          0      )
                  (     0          1          0      )
                  (     0          0          1      )

 cart.    s( 1) = (  1.0000000  0.0000000  0.0000000 )
                  ( -0.0000000  1.0000000  0.0000000 )
                  (  0.0000000  0.0000000  1.0000000 )


      isym =  2     inv. 180 deg rotation - cart. axis [0,1,0]   

 cryst.   s( 2) = (     1          0          0      )
                  (     0         -1          0      )
                  (     0          0          1      )

 cart.    s( 2) = (  1.0000000 -0.0000000  0.0000000 )
                  (  0.0000003 -1.0000000  0.0000000 )
                  (  0.0000000  0.0000000  1.0000000 )


   Cartesian axes

     site n.     atom                  positions (alat units)
         1           C   tau(   1) = (  -0.2434290   0.1963244  -0.0056314  )
         2           C   tau(   2) = (   0.0866340   0.1933293  -0.0430802  )
         3           C   tau(   3) = (   0.4163428   0.1963043  -0.0021401  )
         4           C   tau(   4) = (  -0.0809329   0.0968699  -0.0339926  )
         5           C   tau(   5) = (   0.2539573   0.0968977  -0.0308309  )
         6           C   tau(   6) = (  -0.4128796  -0.1048309   0.0655062  )
         7           H   tau(   7) = (  -0.4106572  -0.1438746   0.2115738  )
         8           C   tau(   8) = (  -0.0809329  -0.0968699  -0.0339926  )
         9           C   tau(   9) = (   0.2539573  -0.0968977  -0.0308309  )
        10           C   tau(  10) = (  -0.2434290  -0.1963244  -0.0056314  )
        11           C   tau(  11) = (   0.0866340  -0.1933293  -0.0430802  )
        12           C   tau(  12) = (   0.4163428  -0.1963043  -0.0021401  )
        13           C   tau(  13) = (  -0.4128796   0.1048309   0.0655062  )
        14           H   tau(  14) = (  -0.4106572   0.1438746   0.2115738  )

   Crystallographic axes

     site n.     atom                  positions (cryst. coord.)
         1           C   tau(   1) = ( -0.2434290  0.3383498 -0.0034556  )
         2           C   tau(   2) = (  0.0866340  0.3331879 -0.0264354  )
         3           C   tau(   3) = (  0.4163428  0.3383151 -0.0013133  )
         4           C   tau(   4) = ( -0.0809329  0.1669477 -0.0208590  )
         5           C   tau(   5) = (  0.2539573  0.1669956 -0.0189189  )
         6           C   tau(   6) = ( -0.4128796 -0.1806677  0.0401967  )
         7           H   tau(   7) = ( -0.4106572 -0.2479565  0.1298285  )
         8           C   tau(   8) = ( -0.0809329 -0.1669476 -0.0208590  )
         9           C   tau(   9) = (  0.2539573 -0.1669957 -0.0189189  )
        10           C   tau(  10) = ( -0.2434290 -0.3383496 -0.0034556  )
        11           C   tau(  11) = (  0.0866340 -0.3331879 -0.0264354  )
        12           C   tau(  12) = (  0.4163428 -0.3383153 -0.0013133  )
        13           C   tau(  13) = ( -0.4128796  0.1806679  0.0401967  )
        14           H   tau(  14) = ( -0.4106572  0.2479567  0.1298285  )

     number of k points=   231
                       cart. coord. in units 2pi/alat
        k(    1) = (   0.0000000   0.0000000   0.0000000), wk =   0.0025000
        k(    2) = (  -0.0000000   0.0430855   0.0000000), wk =   0.0050000
        k(    3) = (  -0.0000000   0.0861711   0.0000000), wk =   0.0050000
        k(    4) = (  -0.0000000   0.1292566   0.0000000), wk =   0.0050000
        k(    5) = (  -0.0000000   0.1723422   0.0000000), wk =   0.0050000
        k(    6) = (  -0.0000000   0.2154277   0.0000000), wk =   0.0050000
        k(    7) = (  -0.0000000   0.2585133   0.0000000), wk =   0.0050000
        k(    8) = (  -0.0000000   0.3015988   0.0000000), wk =   0.0050000
        k(    9) = (  -0.0000000   0.3446844   0.0000000), wk =   0.0050000
        k(   10) = (  -0.0000001   0.3877699   0.0000000), wk =   0.0050000
        k(   11) = (  -0.0000001   0.4308555   0.0000000), wk =   0.0050000
        k(   12) = (  -0.0000001   0.4739410   0.0000000), wk =   0.0050000
        k(   13) = (  -0.0000001   0.5170266   0.0000000), wk =   0.0050000
        k(   14) = (  -0.0000001   0.5601121   0.0000000), wk =   0.0050000
        k(   15) = (  -0.0000001   0.6031977   0.0000000), wk =   0.0050000
        k(   16) = (  -0.0000001   0.6462832   0.0000000), wk =   0.0050000
        k(   17) = (  -0.0000001   0.6893687   0.0000000), wk =   0.0050000
        k(   18) = (  -0.0000001   0.7324543   0.0000000), wk =   0.0050000
        k(   19) = (  -0.0000001   0.7755398   0.0000000), wk =   0.0050000
        k(   20) = (  -0.0000001   0.8186254   0.0000000), wk =   0.0050000
        k(   21) = (   0.0000001  -0.8617109   0.0000000), wk =   0.0025000
        k(   22) = (   0.0500000  -0.0000000   0.0000000), wk =   0.0050000
        k(   23) = (   0.0500000   0.0430855   0.0000000), wk =   0.0100000
        k(   24) = (   0.0500000   0.0861711   0.0000000), wk =   0.0100000
        k(   25) = (   0.0500000   0.1292566   0.0000000), wk =   0.0100000
        k(   26) = (   0.0500000   0.1723422   0.0000000), wk =   0.0100000
        k(   27) = (   0.0500000   0.2154277   0.0000000), wk =   0.0100000
        k(   28) = (   0.0500000   0.2585133   0.0000000), wk =   0.0100000
        k(   29) = (   0.0500000   0.3015988   0.0000000), wk =   0.0100000
        k(   30) = (   0.0500000   0.3446844   0.0000000), wk =   0.0100000
        k(   31) = (   0.0499999   0.3877699   0.0000000), wk =   0.0100000
        k(   32) = (   0.0499999   0.4308555   0.0000000), wk =   0.0100000
        k(   33) = (   0.0499999   0.4739410   0.0000000), wk =   0.0100000
        k(   34) = (   0.0499999   0.5170266   0.0000000), wk =   0.0100000
        k(   35) = (   0.0499999   0.5601121   0.0000000), wk =   0.0100000
        k(   36) = (   0.0499999   0.6031977   0.0000000), wk =   0.0100000
        k(   37) = (   0.0499999   0.6462832   0.0000000), wk =   0.0100000
        k(   38) = (   0.0499999   0.6893687   0.0000000), wk =   0.0100000
        k(   39) = (   0.0499999   0.7324543   0.0000000), wk =   0.0100000
        k(   40) = (   0.0499999   0.7755398   0.0000000), wk =   0.0100000
        k(   41) = (   0.0499999   0.8186254   0.0000000), wk =   0.0100000
        k(   42) = (   0.0500001  -0.8617109   0.0000000), wk =   0.0050000
        k(   43) = (   0.1000000  -0.0000000   0.0000000), wk =   0.0050000
        k(   44) = (   0.1000000   0.0430855   0.0000000), wk =   0.0100000
        k(   45) = (   0.1000000   0.0861711   0.0000000), wk =   0.0100000
        k(   46) = (   0.1000000   0.1292566   0.0000000), wk =   0.0100000
        k(   47) = (   0.1000000   0.1723422   0.0000000), wk =   0.0100000
        k(   48) = (   0.1000000   0.2154277   0.0000000), wk =   0.0100000
        k(   49) = (   0.1000000   0.2585133   0.0000000), wk =   0.0100000
        k(   50) = (   0.1000000   0.3015988   0.0000000), wk =   0.0100000
        k(   51) = (   0.1000000   0.3446844   0.0000000), wk =   0.0100000
        k(   52) = (   0.0999999   0.3877699   0.0000000), wk =   0.0100000
        k(   53) = (   0.0999999   0.4308555   0.0000000), wk =   0.0100000
        k(   54) = (   0.0999999   0.4739410   0.0000000), wk =   0.0100000
        k(   55) = (   0.0999999   0.5170266   0.0000000), wk =   0.0100000
        k(   56) = (   0.0999999   0.5601121   0.0000000), wk =   0.0100000
        k(   57) = (   0.0999999   0.6031977   0.0000000), wk =   0.0100000
        k(   58) = (   0.0999999   0.6462832   0.0000000), wk =   0.0100000
        k(   59) = (   0.0999999   0.6893687   0.0000000), wk =   0.0100000
        k(   60) = (   0.0999999   0.7324543   0.0000000), wk =   0.0100000
        k(   61) = (   0.0999999   0.7755398   0.0000000), wk =   0.0100000
        k(   62) = (   0.0999999   0.8186254   0.0000000), wk =   0.0100000
        k(   63) = (   0.1000001  -0.8617109   0.0000000), wk =   0.0050000
        k(   64) = (   0.1500000  -0.0000000   0.0000000), wk =   0.0050000
        k(   65) = (   0.1500000   0.0430855   0.0000000), wk =   0.0100000
        k(   66) = (   0.1500000   0.0861711   0.0000000), wk =   0.0100000
        k(   67) = (   0.1500000   0.1292566   0.0000000), wk =   0.0100000
        k(   68) = (   0.1500000   0.1723422   0.0000000), wk =   0.0100000
        k(   69) = (   0.1500000   0.2154277   0.0000000), wk =   0.0100000
        k(   70) = (   0.1500000   0.2585133   0.0000000), wk =   0.0100000
        k(   71) = (   0.1500000   0.3015988   0.0000000), wk =   0.0100000
        k(   72) = (   0.1500000   0.3446844   0.0000000), wk =   0.0100000
        k(   73) = (   0.1499999   0.3877699   0.0000000), wk =   0.0100000
        k(   74) = (   0.1499999   0.4308555   0.0000000), wk =   0.0100000
        k(   75) = (   0.1499999   0.4739410   0.0000000), wk =   0.0100000
        k(   76) = (   0.1499999   0.5170266   0.0000000), wk =   0.0100000
        k(   77) = (   0.1499999   0.5601121   0.0000000), wk =   0.0100000
        k(   78) = (   0.1499999   0.6031977   0.0000000), wk =   0.0100000
        k(   79) = (   0.1499999   0.6462832   0.0000000), wk =   0.0100000
        k(   80) = (   0.1499999   0.6893687   0.0000000), wk =   0.0100000
        k(   81) = (   0.1499999   0.7324543   0.0000000), wk =   0.0100000
        k(   82) = (   0.1499999   0.7755398   0.0000000), wk =   0.0100000
        k(   83) = (   0.1499999   0.8186254   0.0000000), wk =   0.0100000
        k(   84) = (   0.1500001  -0.8617109   0.0000000), wk =   0.0050000
        k(   85) = (   0.2000000  -0.0000000   0.0000000), wk =   0.0050000
        k(   86) = (   0.2000000   0.0430855   0.0000000), wk =   0.0100000
        k(   87) = (   0.2000000   0.0861711   0.0000000), wk =   0.0100000
        k(   88) = (   0.2000000   0.1292566   0.0000000), wk =   0.0100000
        k(   89) = (   0.2000000   0.1723422   0.0000000), wk =   0.0100000
        k(   90) = (   0.2000000   0.2154277   0.0000000), wk =   0.0100000
        k(   91) = (   0.2000000   0.2585133   0.0000000), wk =   0.0100000
        k(   92) = (   0.2000000   0.3015988   0.0000000), wk =   0.0100000
        k(   93) = (   0.2000000   0.3446844   0.0000000), wk =   0.0100000
        k(   94) = (   0.1999999   0.3877699   0.0000000), wk =   0.0100000
        k(   95) = (   0.1999999   0.4308555   0.0000000), wk =   0.0100000
        k(   96) = (   0.1999999   0.4739410   0.0000000), wk =   0.0100000
        k(   97) = (   0.1999999   0.5170266   0.0000000), wk =   0.0100000
        k(   98) = (   0.1999999   0.5601121   0.0000000), wk =   0.0100000
        k(   99) = (   0.1999999   0.6031977   0.0000000), wk =   0.0100000
        k(  100) = (   0.1999999   0.6462832   0.0000000), wk =   0.0100000
        k(  101) = (   0.1999999   0.6893687   0.0000000), wk =   0.0100000
        k(  102) = (   0.1999999   0.7324543   0.0000000), wk =   0.0100000
        k(  103) = (   0.1999999   0.7755398   0.0000000), wk =   0.0100000
        k(  104) = (   0.1999999   0.8186254   0.0000000), wk =   0.0100000
        k(  105) = (   0.2000001  -0.8617109   0.0000000), wk =   0.0050000
        k(  106) = (   0.2500000  -0.0000000   0.0000000), wk =   0.0050000
        k(  107) = (   0.2500000   0.0430855   0.0000000), wk =   0.0100000
        k(  108) = (   0.2500000   0.0861711   0.0000000), wk =   0.0100000
        k(  109) = (   0.2500000   0.1292566   0.0000000), wk =   0.0100000
        k(  110) = (   0.2500000   0.1723422   0.0000000), wk =   0.0100000
        k(  111) = (   0.2500000   0.2154277   0.0000000), wk =   0.0100000
        k(  112) = (   0.2500000   0.2585133   0.0000000), wk =   0.0100000
        k(  113) = (   0.2500000   0.3015988   0.0000000), wk =   0.0100000
        k(  114) = (   0.2500000   0.3446844   0.0000000), wk =   0.0100000
        k(  115) = (   0.2499999   0.3877699   0.0000000), wk =   0.0100000
        k(  116) = (   0.2499999   0.4308555   0.0000000), wk =   0.0100000
        k(  117) = (   0.2499999   0.4739410   0.0000000), wk =   0.0100000
        k(  118) = (   0.2499999   0.5170266   0.0000000), wk =   0.0100000
        k(  119) = (   0.2499999   0.5601121   0.0000000), wk =   0.0100000
        k(  120) = (   0.2499999   0.6031977   0.0000000), wk =   0.0100000
        k(  121) = (   0.2499999   0.6462832   0.0000000), wk =   0.0100000
        k(  122) = (   0.2499999   0.6893687   0.0000000), wk =   0.0100000
        k(  123) = (   0.2499999   0.7324543   0.0000000), wk =   0.0100000
        k(  124) = (   0.2499999   0.7755398   0.0000000), wk =   0.0100000
        k(  125) = (   0.2499999   0.8186254   0.0000000), wk =   0.0100000
        k(  126) = (   0.2500001  -0.8617109   0.0000000), wk =   0.0050000
        k(  127) = (   0.3000000  -0.0000000   0.0000000), wk =   0.0050000
        k(  128) = (   0.3000000   0.0430855   0.0000000), wk =   0.0100000
        k(  129) = (   0.3000000   0.0861711   0.0000000), wk =   0.0100000
        k(  130) = (   0.3000000   0.1292566   0.0000000), wk =   0.0100000
        k(  131) = (   0.3000000   0.1723422   0.0000000), wk =   0.0100000
        k(  132) = (   0.3000000   0.2154277   0.0000000), wk =   0.0100000
        k(  133) = (   0.3000000   0.2585133   0.0000000), wk =   0.0100000
        k(  134) = (   0.3000000   0.3015988   0.0000000), wk =   0.0100000
        k(  135) = (   0.3000000   0.3446844   0.0000000), wk =   0.0100000
        k(  136) = (   0.2999999   0.3877699   0.0000000), wk =   0.0100000
        k(  137) = (   0.2999999   0.4308555   0.0000000), wk =   0.0100000
        k(  138) = (   0.2999999   0.4739410   0.0000000), wk =   0.0100000
        k(  139) = (   0.2999999   0.5170266   0.0000000), wk =   0.0100000
        k(  140) = (   0.2999999   0.5601121   0.0000000), wk =   0.0100000
        k(  141) = (   0.2999999   0.6031977   0.0000000), wk =   0.0100000
        k(  142) = (   0.2999999   0.6462832   0.0000000), wk =   0.0100000
        k(  143) = (   0.2999999   0.6893687   0.0000000), wk =   0.0100000
        k(  144) = (   0.2999999   0.7324543   0.0000000), wk =   0.0100000
        k(  145) = (   0.2999999   0.7755398   0.0000000), wk =   0.0100000
        k(  146) = (   0.2999999   0.8186254   0.0000000), wk =   0.0100000
        k(  147) = (   0.3000001  -0.8617109   0.0000000), wk =   0.0050000
        k(  148) = (   0.3500000  -0.0000000   0.0000000), wk =   0.0050000
        k(  149) = (   0.3500000   0.0430855   0.0000000), wk =   0.0100000
        k(  150) = (   0.3500000   0.0861711   0.0000000), wk =   0.0100000
        k(  151) = (   0.3500000   0.1292566   0.0000000), wk =   0.0100000
        k(  152) = (   0.3500000   0.1723422   0.0000000), wk =   0.0100000
        k(  153) = (   0.3500000   0.2154277   0.0000000), wk =   0.0100000
        k(  154) = (   0.3500000   0.2585133   0.0000000), wk =   0.0100000
        k(  155) = (   0.3500000   0.3015988   0.0000000), wk =   0.0100000
        k(  156) = (   0.3500000   0.3446844   0.0000000), wk =   0.0100000
        k(  157) = (   0.3499999   0.3877699   0.0000000), wk =   0.0100000
        k(  158) = (   0.3499999   0.4308555   0.0000000), wk =   0.0100000
        k(  159) = (   0.3499999   0.4739410   0.0000000), wk =   0.0100000
        k(  160) = (   0.3499999   0.5170266   0.0000000), wk =   0.0100000
        k(  161) = (   0.3499999   0.5601121   0.0000000), wk =   0.0100000
        k(  162) = (   0.3499999   0.6031977   0.0000000), wk =   0.0100000
        k(  163) = (   0.3499999   0.6462832   0.0000000), wk =   0.0100000
        k(  164) = (   0.3499999   0.6893687   0.0000000), wk =   0.0100000
        k(  165) = (   0.3499999   0.7324543   0.0000000), wk =   0.0100000
        k(  166) = (   0.3499999   0.7755398   0.0000000), wk =   0.0100000
        k(  167) = (   0.3499999   0.8186254   0.0000000), wk =   0.0100000
        k(  168) = (   0.3500001  -0.8617109   0.0000000), wk =   0.0050000
        k(  169) = (   0.4000000  -0.0000000   0.0000000), wk =   0.0050000
        k(  170) = (   0.4000000   0.0430855   0.0000000), wk =   0.0100000
        k(  171) = (   0.4000000   0.0861711   0.0000000), wk =   0.0100000
        k(  172) = (   0.4000000   0.1292566   0.0000000), wk =   0.0100000
        k(  173) = (   0.4000000   0.1723422   0.0000000), wk =   0.0100000
        k(  174) = (   0.4000000   0.2154277   0.0000000), wk =   0.0100000
        k(  175) = (   0.4000000   0.2585133   0.0000000), wk =   0.0100000
        k(  176) = (   0.4000000   0.3015988   0.0000000), wk =   0.0100000
        k(  177) = (   0.4000000   0.3446844   0.0000000), wk =   0.0100000
        k(  178) = (   0.3999999   0.3877699   0.0000000), wk =   0.0100000
        k(  179) = (   0.3999999   0.4308555   0.0000000), wk =   0.0100000
        k(  180) = (   0.3999999   0.4739410   0.0000000), wk =   0.0100000
        k(  181) = (   0.3999999   0.5170266   0.0000000), wk =   0.0100000
        k(  182) = (   0.3999999   0.5601121   0.0000000), wk =   0.0100000
        k(  183) = (   0.3999999   0.6031977   0.0000000), wk =   0.0100000
        k(  184) = (   0.3999999   0.6462832   0.0000000), wk =   0.0100000
        k(  185) = (   0.3999999   0.6893687   0.0000000), wk =   0.0100000
        k(  186) = (   0.3999999   0.7324543   0.0000000), wk =   0.0100000
        k(  187) = (   0.3999999   0.7755398   0.0000000), wk =   0.0100000
        k(  188) = (   0.3999999   0.8186254   0.0000000), wk =   0.0100000
        k(  189) = (   0.4000001  -0.8617109   0.0000000), wk =   0.0050000
        k(  190) = (   0.4500000  -0.0000000   0.0000000), wk =   0.0050000
        k(  191) = (   0.4500000   0.0430855   0.0000000), wk =   0.0100000
        k(  192) = (   0.4500000   0.0861711   0.0000000), wk =   0.0100000
        k(  193) = (   0.4500000   0.1292566   0.0000000), wk =   0.0100000
        k(  194) = (   0.4500000   0.1723422   0.0000000), wk =   0.0100000
        k(  195) = (   0.4500000   0.2154277   0.0000000), wk =   0.0100000
        k(  196) = (   0.4500000   0.2585133   0.0000000), wk =   0.0100000
        k(  197) = (   0.4500000   0.3015988   0.0000000), wk =   0.0100000
        k(  198) = (   0.4500000   0.3446844   0.0000000), wk =   0.0100000
        k(  199) = (   0.4499999   0.3877699   0.0000000), wk =   0.0100000
        k(  200) = (   0.4499999   0.4308555   0.0000000), wk =   0.0100000
        k(  201) = (   0.4499999   0.4739410   0.0000000), wk =   0.0100000
        k(  202) = (   0.4499999   0.5170266   0.0000000), wk =   0.0100000
        k(  203) = (   0.4499999   0.5601121   0.0000000), wk =   0.0100000
        k(  204) = (   0.4499999   0.6031977   0.0000000), wk =   0.0100000
        k(  205) = (   0.4499999   0.6462832   0.0000000), wk =   0.0100000
        k(  206) = (   0.4499999   0.6893687   0.0000000), wk =   0.0100000
        k(  207) = (   0.4499999   0.7324543   0.0000000), wk =   0.0100000
        k(  208) = (   0.4499999   0.7755398   0.0000000), wk =   0.0100000
        k(  209) = (   0.4499999   0.8186254   0.0000000), wk =   0.0100000
        k(  210) = (   0.4500001  -0.8617109   0.0000000), wk =   0.0050000
        k(  211) = (  -0.5000000   0.0000000   0.0000000), wk =   0.0025000
        k(  212) = (  -0.5000000   0.0430855   0.0000000), wk =   0.0050000
        k(  213) = (  -0.5000000   0.0861711   0.0000000), wk =   0.0050000
        k(  214) = (  -0.5000000   0.1292566   0.0000000), wk =   0.0050000
        k(  215) = (  -0.5000000   0.1723422   0.0000000), wk =   0.0050000
        k(  216) = (  -0.5000000   0.2154277   0.0000000), wk =   0.0050000
        k(  217) = (  -0.5000000   0.2585133   0.0000000), wk =   0.0050000
        k(  218) = (  -0.5000000   0.3015988   0.0000000), wk =   0.0050000
        k(  219) = (  -0.5000000   0.3446844   0.0000000), wk =   0.0050000
        k(  220) = (  -0.5000001   0.3877699   0.0000000), wk =   0.0050000
        k(  221) = (  -0.5000001   0.4308555   0.0000000), wk =   0.0050000
        k(  222) = (  -0.5000001   0.4739410   0.0000000), wk =   0.0050000
        k(  223) = (  -0.5000001   0.5170266   0.0000000), wk =   0.0050000
        k(  224) = (  -0.5000001   0.5601121   0.0000000), wk =   0.0050000
        k(  225) = (  -0.5000001   0.6031977   0.0000000), wk =   0.0050000
        k(  226) = (  -0.5000001   0.6462832   0.0000000), wk =   0.0050000
        k(  227) = (  -0.5000001   0.6893688   0.0000000), wk =   0.0050000
        k(  228) = (  -0.5000001   0.7324543   0.0000000), wk =   0.0050000
        k(  229) = (  -0.5000001   0.7755398   0.0000000), wk =   0.0050000
        k(  230) = (  -0.5000001   0.8186254   0.0000000), wk =   0.0050000
        k(  231) = (  -0.4999999  -0.8617109   0.0000000), wk =   0.0025000

                       cryst. coord.
        k(    1) = (   0.0000000   0.0000000   0.0000000), wk =   0.0025000
        k(    2) = (  -0.0000000   0.0250000   0.0000000), wk =   0.0050000
        k(    3) = (  -0.0000000   0.0500000   0.0000000), wk =   0.0050000
        k(    4) = (  -0.0000000   0.0750000   0.0000000), wk =   0.0050000
        k(    5) = (  -0.0000000   0.1000000   0.0000000), wk =   0.0050000
        k(    6) = (  -0.0000000   0.1250000   0.0000000), wk =   0.0050000
        k(    7) = (  -0.0000000   0.1500000   0.0000000), wk =   0.0050000
        k(    8) = (  -0.0000000   0.1750000   0.0000000), wk =   0.0050000
        k(    9) = (  -0.0000000   0.2000000   0.0000000), wk =   0.0050000
        k(   10) = (  -0.0000000   0.2250000   0.0000000), wk =   0.0050000
        k(   11) = (  -0.0000000   0.2500000   0.0000000), wk =   0.0050000
        k(   12) = (  -0.0000000   0.2750000   0.0000000), wk =   0.0050000
        k(   13) = (  -0.0000000   0.3000000   0.0000000), wk =   0.0050000
        k(   14) = (  -0.0000000   0.3250000   0.0000000), wk =   0.0050000
        k(   15) = (  -0.0000000   0.3500000   0.0000000), wk =   0.0050000
        k(   16) = (  -0.0000000   0.3750000   0.0000000), wk =   0.0050000
        k(   17) = (  -0.0000000   0.4000000   0.0000000), wk =   0.0050000
        k(   18) = (  -0.0000000   0.4250000   0.0000000), wk =   0.0050000
        k(   19) = (  -0.0000000   0.4500000   0.0000000), wk =   0.0050000
        k(   20) = (  -0.0000000   0.4750000   0.0000000), wk =   0.0050000
        k(   21) = (   0.0000000  -0.5000000   0.0000000), wk =   0.0025000
        k(   22) = (   0.0500000  -0.0000000   0.0000000), wk =   0.0050000
        k(   23) = (   0.0500000   0.0250000   0.0000000), wk =   0.0100000
        k(   24) = (   0.0500000   0.0500000   0.0000000), wk =   0.0100000
        k(   25) = (   0.0500000   0.0750000   0.0000000), wk =   0.0100000
        k(   26) = (   0.0500000   0.1000000   0.0000000), wk =   0.0100000
        k(   27) = (   0.0500000   0.1250000   0.0000000), wk =   0.0100000
        k(   28) = (   0.0500000   0.1500000   0.0000000), wk =   0.0100000
        k(   29) = (   0.0500000   0.1750000   0.0000000), wk =   0.0100000
        k(   30) = (   0.0500000   0.2000000   0.0000000), wk =   0.0100000
        k(   31) = (   0.0500000   0.2250000   0.0000000), wk =   0.0100000
        k(   32) = (   0.0500000   0.2500000   0.0000000), wk =   0.0100000
        k(   33) = (   0.0500000   0.2750000   0.0000000), wk =   0.0100000
        k(   34) = (   0.0500000   0.3000000   0.0000000), wk =   0.0100000
        k(   35) = (   0.0500000   0.3250000   0.0000000), wk =   0.0100000
        k(   36) = (   0.0500000   0.3500000   0.0000000), wk =   0.0100000
        k(   37) = (   0.0500000   0.3750000   0.0000000), wk =   0.0100000
        k(   38) = (   0.0500000   0.4000000   0.0000000), wk =   0.0100000
        k(   39) = (   0.0500000   0.4250000   0.0000000), wk =   0.0100000
        k(   40) = (   0.0500000   0.4500000   0.0000000), wk =   0.0100000
        k(   41) = (   0.0500000   0.4750000   0.0000000), wk =   0.0100000
        k(   42) = (   0.0500000  -0.5000000   0.0000000), wk =   0.0050000
        k(   43) = (   0.1000000  -0.0000000   0.0000000), wk =   0.0050000
        k(   44) = (   0.1000000   0.0250000   0.0000000), wk =   0.0100000
        k(   45) = (   0.1000000   0.0500000   0.0000000), wk =   0.0100000
        k(   46) = (   0.1000000   0.0750000   0.0000000), wk =   0.0100000
        k(   47) = (   0.1000000   0.1000000   0.0000000), wk =   0.0100000
        k(   48) = (   0.1000000   0.1250000   0.0000000), wk =   0.0100000
        k(   49) = (   0.1000000   0.1500000   0.0000000), wk =   0.0100000
        k(   50) = (   0.1000000   0.1750000   0.0000000), wk =   0.0100000
        k(   51) = (   0.1000000   0.2000000   0.0000000), wk =   0.0100000
        k(   52) = (   0.1000000   0.2250000   0.0000000), wk =   0.0100000
        k(   53) = (   0.1000000   0.2500000   0.0000000), wk =   0.0100000
        k(   54) = (   0.1000000   0.2750000   0.0000000), wk =   0.0100000
        k(   55) = (   0.1000000   0.3000000   0.0000000), wk =   0.0100000
        k(   56) = (   0.1000000   0.3250000   0.0000000), wk =   0.0100000
        k(   57) = (   0.1000000   0.3500000   0.0000000), wk =   0.0100000
        k(   58) = (   0.1000000   0.3750000   0.0000000), wk =   0.0100000
        k(   59) = (   0.1000000   0.4000000   0.0000000), wk =   0.0100000
        k(   60) = (   0.1000000   0.4250000   0.0000000), wk =   0.0100000
        k(   61) = (   0.1000000   0.4500000   0.0000000), wk =   0.0100000
        k(   62) = (   0.1000000   0.4750000   0.0000000), wk =   0.0100000
        k(   63) = (   0.1000000  -0.5000000   0.0000000), wk =   0.0050000
        k(   64) = (   0.1500000  -0.0000000   0.0000000), wk =   0.0050000
        k(   65) = (   0.1500000   0.0250000   0.0000000), wk =   0.0100000
        k(   66) = (   0.1500000   0.0500000   0.0000000), wk =   0.0100000
        k(   67) = (   0.1500000   0.0750000   0.0000000), wk =   0.0100000
        k(   68) = (   0.1500000   0.1000000   0.0000000), wk =   0.0100000
        k(   69) = (   0.1500000   0.1250000   0.0000000), wk =   0.0100000
        k(   70) = (   0.1500000   0.1500000   0.0000000), wk =   0.0100000
        k(   71) = (   0.1500000   0.1750000   0.0000000), wk =   0.0100000
        k(   72) = (   0.1500000   0.2000000   0.0000000), wk =   0.0100000
        k(   73) = (   0.1500000   0.2250000   0.0000000), wk =   0.0100000
        k(   74) = (   0.1500000   0.2500000   0.0000000), wk =   0.0100000
        k(   75) = (   0.1500000   0.2750000   0.0000000), wk =   0.0100000
        k(   76) = (   0.1500000   0.3000000   0.0000000), wk =   0.0100000
        k(   77) = (   0.1500000   0.3250000   0.0000000), wk =   0.0100000
        k(   78) = (   0.1500000   0.3500000   0.0000000), wk =   0.0100000
        k(   79) = (   0.1500000   0.3750000   0.0000000), wk =   0.0100000
        k(   80) = (   0.1500000   0.4000000   0.0000000), wk =   0.0100000
        k(   81) = (   0.1500000   0.4250000   0.0000000), wk =   0.0100000
        k(   82) = (   0.1500000   0.4500000   0.0000000), wk =   0.0100000
        k(   83) = (   0.1500000   0.4750000   0.0000000), wk =   0.0100000
        k(   84) = (   0.1500000  -0.5000000   0.0000000), wk =   0.0050000
        k(   85) = (   0.2000000  -0.0000000   0.0000000), wk =   0.0050000
        k(   86) = (   0.2000000   0.0250000   0.0000000), wk =   0.0100000
        k(   87) = (   0.2000000   0.0500000   0.0000000), wk =   0.0100000
        k(   88) = (   0.2000000   0.0750000   0.0000000), wk =   0.0100000
        k(   89) = (   0.2000000   0.1000000   0.0000000), wk =   0.0100000
        k(   90) = (   0.2000000   0.1250000   0.0000000), wk =   0.0100000
        k(   91) = (   0.2000000   0.1500000   0.0000000), wk =   0.0100000
        k(   92) = (   0.2000000   0.1750000   0.0000000), wk =   0.0100000
        k(   93) = (   0.2000000   0.2000000   0.0000000), wk =   0.0100000
        k(   94) = (   0.2000000   0.2250000   0.0000000), wk =   0.0100000
        k(   95) = (   0.2000000   0.2500000   0.0000000), wk =   0.0100000
        k(   96) = (   0.2000000   0.2750000   0.0000000), wk =   0.0100000
        k(   97) = (   0.2000000   0.3000000   0.0000000), wk =   0.0100000
        k(   98) = (   0.2000000   0.3250000   0.0000000), wk =   0.0100000
        k(   99) = (   0.2000000   0.3500000   0.0000000), wk =   0.0100000
        k(  100) = (   0.2000000   0.3750000   0.0000000), wk =   0.0100000
        k(  101) = (   0.2000000   0.4000000   0.0000000), wk =   0.0100000
        k(  102) = (   0.2000000   0.4250000   0.0000000), wk =   0.0100000
        k(  103) = (   0.2000000   0.4500000   0.0000000), wk =   0.0100000
        k(  104) = (   0.2000000   0.4750000   0.0000000), wk =   0.0100000
        k(  105) = (   0.2000000  -0.5000000   0.0000000), wk =   0.0050000
        k(  106) = (   0.2500000  -0.0000000   0.0000000), wk =   0.0050000
        k(  107) = (   0.2500000   0.0250000   0.0000000), wk =   0.0100000
        k(  108) = (   0.2500000   0.0500000   0.0000000), wk =   0.0100000
        k(  109) = (   0.2500000   0.0750000   0.0000000), wk =   0.0100000
        k(  110) = (   0.2500000   0.1000000   0.0000000), wk =   0.0100000
        k(  111) = (   0.2500000   0.1250000   0.0000000), wk =   0.0100000
        k(  112) = (   0.2500000   0.1500000   0.0000000), wk =   0.0100000
        k(  113) = (   0.2500000   0.1750000   0.0000000), wk =   0.0100000
        k(  114) = (   0.2500000   0.2000000   0.0000000), wk =   0.0100000
        k(  115) = (   0.2500000   0.2250000   0.0000000), wk =   0.0100000
        k(  116) = (   0.2500000   0.2500000   0.0000000), wk =   0.0100000
        k(  117) = (   0.2500000   0.2750000   0.0000000), wk =   0.0100000
        k(  118) = (   0.2500000   0.3000000   0.0000000), wk =   0.0100000
        k(  119) = (   0.2500000   0.3250000   0.0000000), wk =   0.0100000
        k(  120) = (   0.2500000   0.3500000   0.0000000), wk =   0.0100000
        k(  121) = (   0.2500000   0.3750000   0.0000000), wk =   0.0100000
        k(  122) = (   0.2500000   0.4000000   0.0000000), wk =   0.0100000
        k(  123) = (   0.2500000   0.4250000   0.0000000), wk =   0.0100000
        k(  124) = (   0.2500000   0.4500000   0.0000000), wk =   0.0100000
        k(  125) = (   0.2500000   0.4750000   0.0000000), wk =   0.0100000
        k(  126) = (   0.2500000  -0.5000000   0.0000000), wk =   0.0050000
        k(  127) = (   0.3000000  -0.0000000   0.0000000), wk =   0.0050000
        k(  128) = (   0.3000000   0.0250000   0.0000000), wk =   0.0100000
        k(  129) = (   0.3000000   0.0500000   0.0000000), wk =   0.0100000
        k(  130) = (   0.3000000   0.0750000   0.0000000), wk =   0.0100000
        k(  131) = (   0.3000000   0.1000000   0.0000000), wk =   0.0100000
        k(  132) = (   0.3000000   0.1250000   0.0000000), wk =   0.0100000
        k(  133) = (   0.3000000   0.1500000   0.0000000), wk =   0.0100000
        k(  134) = (   0.3000000   0.1750000   0.0000000), wk =   0.0100000
        k(  135) = (   0.3000000   0.2000000   0.0000000), wk =   0.0100000
        k(  136) = (   0.3000000   0.2250000   0.0000000), wk =   0.0100000
        k(  137) = (   0.3000000   0.2500000   0.0000000), wk =   0.0100000
        k(  138) = (   0.3000000   0.2750000   0.0000000), wk =   0.0100000
        k(  139) = (   0.3000000   0.3000000   0.0000000), wk =   0.0100000
        k(  140) = (   0.3000000   0.3250000   0.0000000), wk =   0.0100000
        k(  141) = (   0.3000000   0.3500000   0.0000000), wk =   0.0100000
        k(  142) = (   0.3000000   0.3750000   0.0000000), wk =   0.0100000
        k(  143) = (   0.3000000   0.4000000   0.0000000), wk =   0.0100000
        k(  144) = (   0.3000000   0.4250000   0.0000000), wk =   0.0100000
        k(  145) = (   0.3000000   0.4500000   0.0000000), wk =   0.0100000
        k(  146) = (   0.3000000   0.4750000   0.0000000), wk =   0.0100000
        k(  147) = (   0.3000000  -0.5000000   0.0000000), wk =   0.0050000
        k(  148) = (   0.3500000   0.0000000   0.0000000), wk =   0.0050000
        k(  149) = (   0.3500000   0.0250000   0.0000000), wk =   0.0100000
        k(  150) = (   0.3500000   0.0500000   0.0000000), wk =   0.0100000
        k(  151) = (   0.3500000   0.0750000   0.0000000), wk =   0.0100000
        k(  152) = (   0.3500000   0.1000000   0.0000000), wk =   0.0100000
        k(  153) = (   0.3500000   0.1250000   0.0000000), wk =   0.0100000
        k(  154) = (   0.3500000   0.1500000   0.0000000), wk =   0.0100000
        k(  155) = (   0.3500000   0.1750000   0.0000000), wk =   0.0100000
        k(  156) = (   0.3500000   0.2000000   0.0000000), wk =   0.0100000
        k(  157) = (   0.3500000   0.2250000   0.0000000), wk =   0.0100000
        k(  158) = (   0.3500000   0.2500000   0.0000000), wk =   0.0100000
        k(  159) = (   0.3500000   0.2750000   0.0000000), wk =   0.0100000
        k(  160) = (   0.3500000   0.3000000   0.0000000), wk =   0.0100000
        k(  161) = (   0.3500000   0.3250000   0.0000000), wk =   0.0100000
        k(  162) = (   0.3500000   0.3500000   0.0000000), wk =   0.0100000
        k(  163) = (   0.3500000   0.3750000   0.0000000), wk =   0.0100000
        k(  164) = (   0.3500000   0.4000000   0.0000000), wk =   0.0100000
        k(  165) = (   0.3500000   0.4250000   0.0000000), wk =   0.0100000
        k(  166) = (   0.3500000   0.4500000   0.0000000), wk =   0.0100000
        k(  167) = (   0.3500000   0.4750000   0.0000000), wk =   0.0100000
        k(  168) = (   0.3500000  -0.5000000   0.0000000), wk =   0.0050000
        k(  169) = (   0.4000000  -0.0000000   0.0000000), wk =   0.0050000
        k(  170) = (   0.4000000   0.0250000   0.0000000), wk =   0.0100000
        k(  171) = (   0.4000000   0.0500000   0.0000000), wk =   0.0100000
        k(  172) = (   0.4000000   0.0750000   0.0000000), wk =   0.0100000
        k(  173) = (   0.4000000   0.1000000   0.0000000), wk =   0.0100000
        k(  174) = (   0.4000000   0.1250000   0.0000000), wk =   0.0100000
        k(  175) = (   0.4000000   0.1500000   0.0000000), wk =   0.0100000
        k(  176) = (   0.4000000   0.1750000   0.0000000), wk =   0.0100000
        k(  177) = (   0.4000000   0.2000000   0.0000000), wk =   0.0100000
        k(  178) = (   0.4000000   0.2250000   0.0000000), wk =   0.0100000
        k(  179) = (   0.4000000   0.2500000   0.0000000), wk =   0.0100000
        k(  180) = (   0.4000000   0.2750000   0.0000000), wk =   0.0100000
        k(  181) = (   0.4000000   0.3000000   0.0000000), wk =   0.0100000
        k(  182) = (   0.4000000   0.3250000   0.0000000), wk =   0.0100000
        k(  183) = (   0.4000000   0.3500000   0.0000000), wk =   0.0100000
        k(  184) = (   0.4000000   0.3750000   0.0000000), wk =   0.0100000
        k(  185) = (   0.4000000   0.4000000   0.0000000), wk =   0.0100000
        k(  186) = (   0.4000000   0.4250000   0.0000000), wk =   0.0100000
        k(  187) = (   0.4000000   0.4500000   0.0000000), wk =   0.0100000
        k(  188) = (   0.4000000   0.4750000   0.0000000), wk =   0.0100000
        k(  189) = (   0.4000000  -0.5000000   0.0000000), wk =   0.0050000
        k(  190) = (   0.4500000  -0.0000000   0.0000000), wk =   0.0050000
        k(  191) = (   0.4500000   0.0250000   0.0000000), wk =   0.0100000
        k(  192) = (   0.4500000   0.0500000   0.0000000), wk =   0.0100000
        k(  193) = (   0.4500000   0.0750000   0.0000000), wk =   0.0100000
        k(  194) = (   0.4500000   0.1000000   0.0000000), wk =   0.0100000
        k(  195) = (   0.4500000   0.1250000   0.0000000), wk =   0.0100000
        k(  196) = (   0.4500000   0.1500000   0.0000000), wk =   0.0100000
        k(  197) = (   0.4500000   0.1750000   0.0000000), wk =   0.0100000
        k(  198) = (   0.4500000   0.2000000   0.0000000), wk =   0.0100000
        k(  199) = (   0.4500000   0.2250000   0.0000000), wk =   0.0100000
        k(  200) = (   0.4500000   0.2500000   0.0000000), wk =   0.0100000
        k(  201) = (   0.4500000   0.2750000   0.0000000), wk =   0.0100000
        k(  202) = (   0.4500000   0.3000000   0.0000000), wk =   0.0100000
        k(  203) = (   0.4500000   0.3250000   0.0000000), wk =   0.0100000
        k(  204) = (   0.4500000   0.3500000   0.0000000), wk =   0.0100000
        k(  205) = (   0.4500000   0.3750000   0.0000000), wk =   0.0100000
        k(  206) = (   0.4500000   0.4000000   0.0000000), wk =   0.0100000
        k(  207) = (   0.4500000   0.4250000   0.0000000), wk =   0.0100000
        k(  208) = (   0.4500000   0.4500000   0.0000000), wk =   0.0100000
        k(  209) = (   0.4500000   0.4750000   0.0000000), wk =   0.0100000
        k(  210) = (   0.4500000  -0.5000000   0.0000000), wk =   0.0050000
        k(  211) = (  -0.5000000   0.0000000   0.0000000), wk =   0.0025000
        k(  212) = (  -0.5000000   0.0250000   0.0000000), wk =   0.0050000
        k(  213) = (  -0.5000000   0.0500000   0.0000000), wk =   0.0050000
        k(  214) = (  -0.5000000   0.0750000   0.0000000), wk =   0.0050000
        k(  215) = (  -0.5000000   0.1000000   0.0000000), wk =   0.0050000
        k(  216) = (  -0.5000000   0.1250000   0.0000000), wk =   0.0050000
        k(  217) = (  -0.5000000   0.1500000   0.0000000), wk =   0.0050000
        k(  218) = (  -0.5000000   0.1750000   0.0000000), wk =   0.0050000
        k(  219) = (  -0.5000000   0.2000000   0.0000000), wk =   0.0050000
        k(  220) = (  -0.5000000   0.2250000   0.0000000), wk =   0.0050000
        k(  221) = (  -0.5000000   0.2500000   0.0000000), wk =   0.0050000
        k(  222) = (  -0.5000000   0.2750000   0.0000000), wk =   0.0050000
        k(  223) = (  -0.5000000   0.3000000   0.0000000), wk =   0.0050000
        k(  224) = (  -0.5000000   0.3250000   0.0000000), wk =   0.0050000
        k(  225) = (  -0.5000000   0.3500000   0.0000000), wk =   0.0050000
        k(  226) = (  -0.5000000   0.3750000   0.0000000), wk =   0.0050000
        k(  227) = (  -0.5000000   0.4000000   0.0000000), wk =   0.0050000
        k(  228) = (  -0.5000000   0.4250000   0.0000000), wk =   0.0050000
        k(  229) = (  -0.5000000   0.4500000   0.0000000), wk =   0.0050000
        k(  230) = (  -0.5000000   0.4750000   0.0000000), wk =   0.0050000
        k(  231) = (  -0.5000000  -0.5000000   0.0000000), wk =   0.0025000

     Dense  grid:   201565 G-vectors     FFT dimensions: (  75,  45, 125)

     Dynamical RAM for                 wfc:      57.67 MB

     Dynamical RAM for     wfc (w. buffer):      57.67 MB

     Dynamical RAM for           str. fact:       1.54 MB

     Dynamical RAM for           local pot:       0.00 MB

     Dynamical RAM for          nlocal pot:      10.19 MB

     Dynamical RAM for                qrad:       0.77 MB

     Dynamical RAM for          rho,v,vnew:       4.78 MB

     Dynamical RAM for           G-vectors:       3.27 MB

     Dynamical RAM for          h,s,v(r/c):      65.92 MB

     Dynamical RAM for          <psi|beta>:       0.97 MB

     Dynamical RAM for                 psi:     115.34 MB

     Dynamical RAM for                hpsi:     115.34 MB

     Dynamical RAM for      wfcinit/wfcrot:     123.58 MB

     Estimated static dynamical RAM per process >      84.64 MB

     Estimated max dynamical RAM per process >     382.20 MB

     Estimated total dynamical RAM >       1.49 GB

     The potential is recalculated from file :
     ./kpoints_20x40-nbnds_600.save/charge-density

     Starting wfcs are   50 randomized atomic wfcs +  550 random wfcs

     Band Structure Calculation
     Davidson diagonalization with overlap

     Computing kpt #:     1  of   231
     total cpu time spent up to now is        4.6 secs

     Computing kpt #:     2  of   231
     total cpu time spent up to now is        6.7 secs

     Computing kpt #:     3  of   231
     total cpu time spent up to now is        8.8 secs

     Computing kpt #:     4  of   231
     total cpu time spent up to now is       10.9 secs

     Computing kpt #:     5  of   231
     total cpu time spent up to now is       13.0 secs

     Computing kpt #:     6  of   231
     total cpu time spent up to now is       15.1 secs

     Computing kpt #:     7  of   231
     total cpu time spent up to now is       17.2 secs

     Computing kpt #:     8  of   231
     total cpu time spent up to now is       19.3 secs

     Computing kpt #:     9  of   231
     total cpu time spent up to now is       21.4 secs

     Computing kpt #:    10  of   231
     total cpu time spent up to now is       23.8 secs

     Computing kpt #:    11  of   231
     total cpu time spent up to now is       26.5 secs

     Computing kpt #:    12  of   231
     total cpu time spent up to now is       28.7 secs

     Computing kpt #:    13  of   231
     total cpu time spent up to now is       30.9 secs

     Computing kpt #:    14  of   231
     total cpu time spent up to now is       33.0 secs

     Computing kpt #:    15  of   231
     total cpu time spent up to now is       35.1 secs

     Computing kpt #:    16  of   231
     total cpu time spent up to now is       37.3 secs

     Computing kpt #:    17  of   231
     total cpu time spent up to now is       39.5 secs

     Computing kpt #:    18  of   231
     total cpu time spent up to now is       41.6 secs

     Computing kpt #:    19  of   231
     total cpu time spent up to now is       43.9 secs

     Computing kpt #:    20  of   231
     total cpu time spent up to now is       46.0 secs

     Computing kpt #:    21  of   231
     total cpu time spent up to now is       48.3 secs

     Computing kpt #:    22  of   231
     total cpu time spent up to now is       50.4 secs

     Computing kpt #:    23  of   231
     total cpu time spent up to now is       52.5 secs

     Computing kpt #:    24  of   231
     total cpu time spent up to now is       54.6 secs

     Computing kpt #:    25  of   231
     total cpu time spent up to now is       56.7 secs

     Computing kpt #:    26  of   231
     total cpu time spent up to now is       58.8 secs

     Computing kpt #:    27  of   231
     total cpu time spent up to now is       60.9 secs

     Computing kpt #:    28  of   231
     total cpu time spent up to now is       63.6 secs

     Computing kpt #:    29  of   231
     total cpu time spent up to now is       65.7 secs

     Computing kpt #:    30  of   231
     total cpu time spent up to now is       68.0 secs

     Computing kpt #:    31  of   231
     total cpu time spent up to now is       70.3 secs

     Computing kpt #:    32  of   231
     total cpu time spent up to now is       72.4 secs

     Computing kpt #:    33  of   231
     total cpu time spent up to now is       74.5 secs

     Computing kpt #:    34  of   231
     total cpu time spent up to now is       76.6 secs

     Computing kpt #:    35  of   231
     total cpu time spent up to now is       78.7 secs

     Computing kpt #:    36  of   231
     total cpu time spent up to now is       80.9 secs

     Computing kpt #:    37  of   231
     total cpu time spent up to now is       83.0 secs

     Computing kpt #:    38  of   231
     total cpu time spent up to now is       85.1 secs

     Computing kpt #:    39  of   231
     total cpu time spent up to now is       87.3 secs

     Computing kpt #:    40  of   231
     total cpu time spent up to now is       89.4 secs

     Computing kpt #:    41  of   231
     total cpu time spent up to now is       91.7 secs

     Computing kpt #:    42  of   231
     total cpu time spent up to now is       93.8 secs

     Computing kpt #:    43  of   231
     total cpu time spent up to now is       95.9 secs

     Computing kpt #:    44  of   231
     total cpu time spent up to now is       98.0 secs

     Computing kpt #:    45  of   231
     total cpu time spent up to now is      100.0 secs

     Computing kpt #:    46  of   231
     total cpu time spent up to now is      102.1 secs

     Computing kpt #:    47  of   231
     total cpu time spent up to now is      104.1 secs

     Computing kpt #:    48  of   231
     total cpu time spent up to now is      106.1 secs

     Computing kpt #:    49  of   231
     total cpu time spent up to now is      108.2 secs

     Computing kpt #:    50  of   231
     total cpu time spent up to now is      110.2 secs

     Computing kpt #:    51  of   231
     total cpu time spent up to now is      112.2 secs

     Computing kpt #:    52  of   231
     total cpu time spent up to now is      114.3 secs

     Computing kpt #:    53  of   231
     total cpu time spent up to now is      116.8 secs

     Computing kpt #:    54  of   231
     total cpu time spent up to now is      119.3 secs

     Computing kpt #:    55  of   231
     total cpu time spent up to now is      121.3 secs

     Computing kpt #:    56  of   231
     total cpu time spent up to now is      123.4 secs

     Computing kpt #:    57  of   231
     total cpu time spent up to now is      125.4 secs

     Computing kpt #:    58  of   231
     total cpu time spent up to now is      127.5 secs

     Computing kpt #:    59  of   231
     total cpu time spent up to now is      129.5 secs

     Computing kpt #:    60  of   231
     total cpu time spent up to now is      131.6 secs

     Computing kpt #:    61  of   231
     total cpu time spent up to now is      133.6 secs

     Computing kpt #:    62  of   231
     total cpu time spent up to now is      135.7 secs

     Computing kpt #:    63  of   231
     total cpu time spent up to now is      137.8 secs

     Computing kpt #:    64  of   231
     total cpu time spent up to now is      139.8 secs

     Computing kpt #:    65  of   231
     total cpu time spent up to now is      141.8 secs

     Computing kpt #:    66  of   231
     total cpu time spent up to now is      143.8 secs

     Computing kpt #:    67  of   231
     total cpu time spent up to now is      145.9 secs

     Computing kpt #:    68  of   231
     total cpu time spent up to now is      147.9 secs

     Computing kpt #:    69  of   231
     total cpu time spent up to now is      149.9 secs

     Computing kpt #:    70  of   231
     total cpu time spent up to now is      151.9 secs

     Computing kpt #:    71  of   231
     total cpu time spent up to now is      154.6 secs

     Computing kpt #:    72  of   231
     total cpu time spent up to now is      156.7 secs

     Computing kpt #:    73  of   231
     total cpu time spent up to now is      159.1 secs

     Computing kpt #:    74  of   231
     total cpu time spent up to now is      161.3 secs

     Computing kpt #:    75  of   231
     total cpu time spent up to now is      163.3 secs

     Computing kpt #:    76  of   231
     total cpu time spent up to now is      165.4 secs

     Computing kpt #:    77  of   231
     total cpu time spent up to now is      167.5 secs

     Computing kpt #:    78  of   231
     total cpu time spent up to now is      169.5 secs

     Computing kpt #:    79  of   231
     total cpu time spent up to now is      171.6 secs

     Computing kpt #:    80  of   231
     total cpu time spent up to now is      173.6 secs

     Computing kpt #:    81  of   231
     total cpu time spent up to now is      175.6 secs

     Computing kpt #:    82  of   231
     total cpu time spent up to now is      177.7 secs

     Computing kpt #:    83  of   231
     total cpu time spent up to now is      179.8 secs

     Computing kpt #:    84  of   231
     total cpu time spent up to now is      181.9 secs

     Computing kpt #:    85  of   231
     total cpu time spent up to now is      183.9 secs

     Computing kpt #:    86  of   231
     total cpu time spent up to now is      185.9 secs

     Computing kpt #:    87  of   231
     total cpu time spent up to now is      188.0 secs

     Computing kpt #:    88  of   231
     total cpu time spent up to now is      190.0 secs

     Computing kpt #:    89  of   231
     total cpu time spent up to now is      192.0 secs

     Computing kpt #:    90  of   231
     total cpu time spent up to now is      194.0 secs

     Computing kpt #:    91  of   231
     total cpu time spent up to now is      196.0 secs

     Computing kpt #:    92  of   231
     total cpu time spent up to now is      198.1 secs

     Computing kpt #:    93  of   231
     total cpu time spent up to now is      200.3 secs

     Computing kpt #:    94  of   231
     total cpu time spent up to now is      202.3 secs

     Computing kpt #:    95  of   231
     total cpu time spent up to now is      204.5 secs

     Computing kpt #:    96  of   231
     total cpu time spent up to now is      206.7 secs

     Computing kpt #:    97  of   231
     total cpu time spent up to now is      208.7 secs

     Computing kpt #:    98  of   231
     total cpu time spent up to now is      210.8 secs

     Computing kpt #:    99  of   231
     total cpu time spent up to now is      212.8 secs

     Computing kpt #:   100  of   231
     total cpu time spent up to now is      214.8 secs

     Computing kpt #:   101  of   231
     total cpu time spent up to now is      216.8 secs

     Computing kpt #:   102  of   231
     total cpu time spent up to now is      218.7 secs

     Computing kpt #:   103  of   231
     total cpu time spent up to now is      220.6 secs

     Computing kpt #:   104  of   231
     total cpu time spent up to now is      222.6 secs

     Computing kpt #:   105  of   231
     total cpu time spent up to now is      224.5 secs

     Computing kpt #:   106  of   231
     total cpu time spent up to now is      226.4 secs

     Computing kpt #:   107  of   231
     total cpu time spent up to now is      228.3 secs

     Computing kpt #:   108  of   231
     total cpu time spent up to now is      230.1 secs

     Computing kpt #:   109  of   231
     total cpu time spent up to now is      231.9 secs

     Computing kpt #:   110  of   231
     total cpu time spent up to now is      233.7 secs

     Computing kpt #:   111  of   231
     total cpu time spent up to now is      235.5 secs

     Computing kpt #:   112  of   231
     total cpu time spent up to now is      237.3 secs

     Computing kpt #:   113  of   231
     total cpu time spent up to now is      239.1 secs

     Computing kpt #:   114  of   231
     total cpu time spent up to now is      241.3 secs

     Computing kpt #:   115  of   231
     total cpu time spent up to now is      243.3 secs

     Computing kpt #:   116  of   231
     total cpu time spent up to now is      245.5 secs

     Computing kpt #:   117  of   231
     total cpu time spent up to now is      247.4 secs

     Computing kpt #:   118  of   231
     total cpu time spent up to now is      249.2 secs

     Computing kpt #:   119  of   231
     total cpu time spent up to now is      251.1 secs

     Computing kpt #:   120  of   231
     total cpu time spent up to now is      252.9 secs

     Computing kpt #:   121  of   231
     total cpu time spent up to now is      254.8 secs

     Computing kpt #:   122  of   231
     total cpu time spent up to now is      256.7 secs

     Computing kpt #:   123  of   231
     total cpu time spent up to now is      258.6 secs

     Computing kpt #:   124  of   231
     total cpu time spent up to now is      260.4 secs

     Computing kpt #:   125  of   231
     total cpu time spent up to now is      262.3 secs

     Computing kpt #:   126  of   231
     total cpu time spent up to now is      264.1 secs

     Computing kpt #:   127  of   231
     total cpu time spent up to now is      265.9 secs

     Computing kpt #:   128  of   231
     total cpu time spent up to now is      267.7 secs

     Computing kpt #:   129  of   231
     total cpu time spent up to now is      269.5 secs

     Computing kpt #:   130  of   231
     total cpu time spent up to now is      271.3 secs

     Computing kpt #:   131  of   231
     total cpu time spent up to now is      273.1 secs

     Computing kpt #:   132  of   231
     total cpu time spent up to now is      274.9 secs

     Computing kpt #:   133  of   231
     total cpu time spent up to now is      276.7 secs

     Computing kpt #:   134  of   231
     total cpu time spent up to now is      278.6 secs

     Computing kpt #:   135  of   231
     total cpu time spent up to now is      280.5 secs

     Computing kpt #:   136  of   231
     total cpu time spent up to now is      282.5 secs

     Computing kpt #:   137  of   231
     total cpu time spent up to now is      284.4 secs

     Computing kpt #:   138  of   231
     total cpu time spent up to now is      286.3 secs

     Computing kpt #:   139  of   231
     total cpu time spent up to now is      288.1 secs

     Computing kpt #:   140  of   231
     total cpu time spent up to now is      290.0 secs

     Computing kpt #:   141  of   231
     total cpu time spent up to now is      291.8 secs

     Computing kpt #:   142  of   231
     total cpu time spent up to now is      293.8 secs

     Computing kpt #:   143  of   231
     total cpu time spent up to now is      295.7 secs

     Computing kpt #:   144  of   231
     total cpu time spent up to now is      297.5 secs

     Computing kpt #:   145  of   231
     total cpu time spent up to now is      299.3 secs

     Computing kpt #:   146  of   231
     total cpu time spent up to now is      301.1 secs

     Computing kpt #:   147  of   231
     total cpu time spent up to now is      303.1 secs

     Computing kpt #:   148  of   231
     total cpu time spent up to now is      304.9 secs

     Computing kpt #:   149  of   231
     total cpu time spent up to now is      306.7 secs

     Computing kpt #:   150  of   231
     total cpu time spent up to now is      308.5 secs

     Computing kpt #:   151  of   231
     total cpu time spent up to now is      310.3 secs

     Computing kpt #:   152  of   231
     total cpu time spent up to now is      312.1 secs

     Computing kpt #:   153  of   231
     total cpu time spent up to now is      313.9 secs

     Computing kpt #:   154  of   231
     total cpu time spent up to now is      315.9 secs

     Computing kpt #:   155  of   231
     total cpu time spent up to now is      317.8 secs

     Computing kpt #:   156  of   231
     total cpu time spent up to now is      319.8 secs

     Computing kpt #:   157  of   231
     total cpu time spent up to now is      321.7 secs

     Computing kpt #:   158  of   231
     total cpu time spent up to now is      323.6 secs

     Computing kpt #:   159  of   231
     total cpu time spent up to now is      325.4 secs

     Computing kpt #:   160  of   231
     total cpu time spent up to now is      327.3 secs

     Computing kpt #:   161  of   231
     total cpu time spent up to now is      329.1 secs

     Computing kpt #:   162  of   231
     total cpu time spent up to now is      331.0 secs

     Computing kpt #:   163  of   231
     total cpu time spent up to now is      332.9 secs

     Computing kpt #:   164  of   231
     total cpu time spent up to now is      334.7 secs

     Computing kpt #:   165  of   231
     total cpu time spent up to now is      336.5 secs

     Computing kpt #:   166  of   231
     total cpu time spent up to now is      338.4 secs

     Computing kpt #:   167  of   231
     total cpu time spent up to now is      340.2 secs

     Computing kpt #:   168  of   231
     total cpu time spent up to now is      342.0 secs

     Computing kpt #:   169  of   231
     total cpu time spent up to now is      343.8 secs

     Computing kpt #:   170  of   231
     total cpu time spent up to now is      345.6 secs

     Computing kpt #:   171  of   231
     total cpu time spent up to now is      347.4 secs

     Computing kpt #:   172  of   231
     total cpu time spent up to now is      349.2 secs

     Computing kpt #:   173  of   231
     total cpu time spent up to now is      351.0 secs

     Computing kpt #:   174  of   231
     total cpu time spent up to now is      352.8 secs

     Computing kpt #:   175  of   231
     total cpu time spent up to now is      355.0 secs

     Computing kpt #:   176  of   231
     total cpu time spent up to now is      356.8 secs

     Computing kpt #:   177  of   231
     total cpu time spent up to now is      358.6 secs

     Computing kpt #:   178  of   231
     total cpu time spent up to now is      360.5 secs

     Computing kpt #:   179  of   231
     total cpu time spent up to now is      362.4 secs

     Computing kpt #:   180  of   231
     total cpu time spent up to now is      364.2 secs

     Computing kpt #:   181  of   231
     total cpu time spent up to now is      366.0 secs

     Computing kpt #:   182  of   231
     total cpu time spent up to now is      367.8 secs

     Computing kpt #:   183  of   231
     total cpu time spent up to now is      369.7 secs

     Computing kpt #:   184  of   231
     total cpu time spent up to now is      371.5 secs

     Computing kpt #:   185  of   231
     total cpu time spent up to now is      373.3 secs

     Computing kpt #:   186  of   231
     total cpu time spent up to now is      375.1 secs

     Computing kpt #:   187  of   231
     total cpu time spent up to now is      377.0 secs

     Computing kpt #:   188  of   231
     total cpu time spent up to now is      378.7 secs

     Computing kpt #:   189  of   231
     total cpu time spent up to now is      380.6 secs

     Computing kpt #:   190  of   231
     total cpu time spent up to now is      382.3 secs

     Computing kpt #:   191  of   231
     total cpu time spent up to now is      384.1 secs

     Computing kpt #:   192  of   231
     total cpu time spent up to now is      385.9 secs

     Computing kpt #:   193  of   231
     total cpu time spent up to now is      387.7 secs

     Computing kpt #:   194  of   231
     total cpu time spent up to now is      389.5 secs

     Computing kpt #:   195  of   231
     total cpu time spent up to now is      391.4 secs

     Computing kpt #:   196  of   231
     total cpu time spent up to now is      393.1 secs

     Computing kpt #:   197  of   231
     total cpu time spent up to now is      394.9 secs

     Computing kpt #:   198  of   231
     total cpu time spent up to now is      396.8 secs

     Computing kpt #:   199  of   231
     total cpu time spent up to now is      398.6 secs

     Computing kpt #:   200  of   231
     total cpu time spent up to now is      400.6 secs

     Computing kpt #:   201  of   231
     total cpu time spent up to now is      402.6 secs

     Computing kpt #:   202  of   231
     total cpu time spent up to now is      404.5 secs

     Computing kpt #:   203  of   231
     total cpu time spent up to now is      406.3 secs

     Computing kpt #:   204  of   231
     total cpu time spent up to now is      408.1 secs

     Computing kpt #:   205  of   231
     total cpu time spent up to now is      409.9 secs

     Computing kpt #:   206  of   231
     total cpu time spent up to now is      411.7 secs

     Computing kpt #:   207  of   231
     total cpu time spent up to now is      413.5 secs

     Computing kpt #:   208  of   231
     total cpu time spent up to now is      415.4 secs

     Computing kpt #:   209  of   231
     total cpu time spent up to now is      417.2 secs

     Computing kpt #:   210  of   231
     total cpu time spent up to now is      419.0 secs

     Computing kpt #:   211  of   231
     total cpu time spent up to now is      420.8 secs

     Computing kpt #:   212  of   231
     total cpu time spent up to now is      422.6 secs

     Computing kpt #:   213  of   231
     total cpu time spent up to now is      424.4 secs

     Computing kpt #:   214  of   231
     total cpu time spent up to now is      426.2 secs

     Computing kpt #:   215  of   231
     total cpu time spent up to now is      428.0 secs

     Computing kpt #:   216  of   231
     total cpu time spent up to now is      429.8 secs

     Computing kpt #:   217  of   231
     total cpu time spent up to now is      431.6 secs

     Computing kpt #:   218  of   231
     total cpu time spent up to now is      433.4 secs

     Computing kpt #:   219  of   231
     total cpu time spent up to now is      435.2 secs

     Computing kpt #:   220  of   231
     total cpu time spent up to now is      437.3 secs

     Computing kpt #:   221  of   231
     total cpu time spent up to now is      439.1 secs

     Computing kpt #:   222  of   231
     total cpu time spent up to now is      440.9 secs

     Computing kpt #:   223  of   231
     total cpu time spent up to now is      442.8 secs

     Computing kpt #:   224  of   231
     total cpu time spent up to now is      444.6 secs

     Computing kpt #:   225  of   231
     total cpu time spent up to now is      446.4 secs

     Computing kpt #:   226  of   231
     total cpu time spent up to now is      448.3 secs

     Computing kpt #:   227  of   231
     total cpu time spent up to now is      450.1 secs

     Computing kpt #:   228  of   231
     total cpu time spent up to now is      451.9 secs

     Computing kpt #:   229  of   231
     total cpu time spent up to now is      453.7 secs

     Computing kpt #:   230  of   231
     total cpu time spent up to now is      455.5 secs

     Computing kpt #:   231  of   231
     total cpu time spent up to now is      457.3 secs

     ethr =  2.00E-09,  avg # of iterations = 24.6

     total cpu time spent up to now is      457.3 secs

     End of band structure calculation

          k = 0.0000 0.0000 0.0000 ( 25189 PWs)   bands (ev):

   -20.1794 -18.3065 -18.2196 -14.9400 -13.9217 -13.6461 -13.4036 -13.3436
   -13.1791 -11.1155 -10.8851  -9.4409  -8.9794  -8.0783  -7.4305  -7.4082
    -7.1094  -6.9911  -5.5331  -5.5294  -3.9102  -3.7236  -3.1001  -2.2672
    -0.7147  -0.4146   0.4784   1.9262   2.4599   3.0568   4.0462   4.3671
     4.4421   5.6262   5.7381   5.8429   5.9816   6.2783   6.5064   6.8666
     7.1130   7.2397   7.9974   8.6141   8.6660   8.6895   9.4479   9.6414
     9.7042   9.8139   9.9622  10.0599  10.4380  10.7627  10.8692  11.0820
    11.0887  11.2184  11.2333  11.5510  11.8107  12.0048  12.0638  12.0892
    12.1811  12.4218  12.4351  12.9756  13.0867  13.2741  13.4487  13.5538
    13.8440  14.1266  14.1683  14.1704  14.2026  14.3861  14.5770  14.6300
    14.7766  14.7979  14.8538  14.9513  15.2059  15.2829  15.3202  15.4446
    15.7252  15.9584  16.1382  16.2686  16.5910  16.8024  16.9634  17.0206
    17.3315  17.3833  17.4407  17.5397  17.9759  18.2716  18.3149  18.3982
    18.7601  18.9016  19.0885  19.1242  19.4940  19.6736  19.6947  20.0249
    20.2025  20.2066  20.4162  20.4894  20.6986  21.2031  21.3121  21.7125
    21.7565  21.8536  21.9295  22.0569  22.5070  22.5269  22.5844  22.8637
    22.9198  22.9677  22.9937  23.1832  23.3787  23.4028  23.4150  23.7168
    23.7415  23.9128  24.1152  24.2964  24.4141  24.6462  24.6768  24.9746
    25.0660  25.1181  25.2985  25.3947  25.6182  25.9301  26.0016  26.2226
    26.3177  26.3785  26.8002  26.8745  26.9577  27.0088  27.1362  27.1467
    27.4042  27.6870  27.7328  27.9398  28.0410  28.5695  28.6239  28.6661
    28.7437  28.8437  28.8491  28.8773  29.6305  29.9230  30.5135  30.6414
    30.6570  30.7032  30.8585  31.0330  31.1991  31.3243  31.3501  31.7830
    31.9712  32.3542  32.4780  32.8725  32.9096  32.9621  32.9892  33.3072
    33.3418  33.4509  33.5101  33.9363  33.9718  33.9853  34.0105  34.3127
    34.3369  34.3412  34.6260  34.7000  34.7732  34.8088  34.9975  35.1321
    35.1402  35.1627  35.3966  35.5650  35.6627  35.7877  35.9267  35.9373
    35.9569  36.0085  36.3737  36.4329  36.6092  36.6465  36.6470  36.6721
    36.7493  36.8381  37.0006  37.0615  37.1026  37.1475  37.1747  37.3201
    37.6183  37.6367  37.6925  37.8826  38.2252  38.3566  38.3712  38.4388
    38.6118  38.7722  38.8223  38.9935  39.1456  39.2175  39.2596  39.2836
    39.4024  39.4147  39.7183  39.8079  40.0074  40.2214  40.2999  40.4513
    40.4891  40.5348  40.6014  40.6963  40.7606  40.8153  41.1040  41.1591
    41.2861  41.3069  41.4427  41.5854  42.0381  42.1473  42.2475  42.2862
    42.4138  42.4322  42.4430  42.8206  42.9302  43.0707  43.1976  43.2080
    43.2838  43.3797  43.5709  43.6174  43.8040  43.8456  43.9890  44.0580
    44.1931  44.2778  44.3383  44.4741  44.4906  44.6804  44.9686  44.9911
    45.0381  45.0527  45.2637  45.2699  45.3715  45.3843  45.3871  45.8021
    46.0311  46.1669  46.2524  46.3084  46.4771  46.6266  46.6889  46.7186
    46.7630  46.7662  47.0215  47.0349  47.1286  47.2237  47.2701  47.3091
    47.3549  47.4600  47.5042  47.5840  47.6341  47.7181  47.7370  47.8196
    47.9132  47.9531  48.0128  48.1870  48.2133  48.2491  48.3066  48.3461
    48.5444  48.5517  48.6156  48.7364  48.7864  49.1044  49.1100  49.3126
    49.3405  49.4267  49.5716  49.9148  49.9767  50.1259  50.1276  50.1931
    50.3481  50.3768  50.5049  50.6162  50.8606  50.9980  51.1679  51.2682
    51.4772  51.5281  51.5409  51.6060  51.7987  51.8331  51.9794  52.0977
    52.1218  52.3029  52.3039  52.5285  52.5313  52.7669  52.8213  53.1252
    53.2533  53.6350  53.6793  53.7597  54.0947  54.2459  54.3096  54.4031
    54.4295  54.4686  54.6860  54.9961  55.0867  55.1335  55.1942  55.2586
    55.3218  55.5339  55.7236  55.8301  55.8519  55.8994  55.9097  55.9485
    56.0126  56.2039  56.2331  56.3089  56.3237  56.3956  56.5504  56.5574
    56.5723  56.9586  56.9652  57.0497  57.0899  57.3327  57.5159  57.5284
    57.5552  57.5605  57.6474  57.7862  57.9072  57.9352  58.0243  58.0663
    58.2347  58.2866  58.3347  58.3691  58.5987  58.6128  58.7352  58.8811
    58.9215  58.9217  59.0407  59.0774  59.1291  59.1768  59.2329  59.2497
    59.3437  59.4889  59.5145  59.6947  59.7312  59.7974  59.8437  59.9103
    59.9850  60.0341  60.1460  60.1859  60.2082  60.3580  60.4261  60.4866
    60.6609  60.7520  60.8922  60.9749  61.0418  61.2160  61.2400  61.2638
    61.4261  61.5298  61.5575  61.5796  61.6692  61.7015  61.7844  61.8383
    61.8806  62.0503  62.0746  62.3491  62.8492  62.8512  63.0782  63.4910
    63.5437  64.0238  64.2126  64.2471  64.3250  64.4569  64.4906  64.7765
    64.8642  65.1553  65.2518  65.2793  65.5097  65.6451  65.7231  65.7572
    65.8260  65.9979  66.0067  66.1407  66.2413  66.4463  66.7006  66.7737
    66.8357  66.9796  67.1483  67.3632  67.3681  67.3684  67.5673  67.6508
    67.6980  67.7428  67.7662  67.8335  67.8340  67.8481  67.9517  67.9573
    68.0569  68.1224  68.1492  68.3288  68.3290  68.3533  68.4214  68.5888
    68.6240  68.7741  68.7924  68.8230  68.9926  69.1211  69.2066  69.2682
    69.4460  69.4565  69.5598  69.8673  69.9432  70.3037  70.3634  70.3784
    70.4345  70.4743  70.5842  70.6439  70.7585  70.7621  70.7958  70.9479
    71.0072  71.3783  71.5045  71.6020  71.6641  71.7835  72.0272  72.0812
    72.1066  72.2176  72.3225  72.3399  72.4187  72.4683  72.5402  72.7929
    72.8460  72.9450  72.9686  73.1063  73.2832  73.3817  73.3893  73.5347
    73.6311  73.7129  73.9623  73.9686  74.1100  74.4085  74.4983  74.5226
    74.5485  74.6223  74.7818  74.9102  74.9632  75.0509  75.2093  75.3099
    75.7239  75.7546  75.8314  75.8628  75.8644  76.0449  76.1149  76.1526

     occupation numbers 
     1.0000   1.0000   1.0000   1.0000   1.0000   1.0000   1.0000   1.0000
     1.0000   1.0000   1.0000   1.0000   1.0000   1.0000   1.0000   1.0000
     1.0000   1.0000   1.0000   1.0000   1.0000   1.0000   1.0000   1.0000
     1.0000   0.0000   0.0000   0.0000   0.0000   0.0000   0.0000   0.0000
     0.0000   0.0000   0.0000   0.0000   0.0000   0.0000   0.0000   0.0000
     0.0000   0.0000   0.0000   0.0000   0.0000   0.0000   0.0000   0.0000
     0.0000   0.0000   0.0000   0.0000   0.0000   0.0000   0.0000   0.0000
     0.0000   0.0000   0.0000   0.0000   0.0000   0.0000   0.0000   0.0000
     0.0000   0.0000   0.0000   0.0000   0.0000   0.0000   0.0000   0.0000
     0.0000   0.0000   0.0000   0.0000   0.0000   0.0000   0.0000   0.0000
     0.0000   0.0000   0.0000   0.0000   0.0000   0.0000   0.0000   0.0000
     0.0000   0.0000   0.0000   0.0000   0.0000   0.0000   0.0000   0.0000
     0.0000   0.0000   0.0000   0.0000   0.0000   0.0000   0.0000   0.0000
     0.0000   0.0000   0.0000   0.0000   0.0000   0.0000   0.0000   0.0000
     0.0000   0.0000   0.0000   0.0000   0.0000   0.0000   0.0000   0.0000
     0.0000   0.0000   0.0000   0.0000   0.0000   0.0000   0.0000   0.0000
     0.0000   0.0000   0.0000   0.0000   0.0000   0.0000   0.0000   0.0000
     0.0000   0.0000   0.0000   0.0000   0.0000   0.0000   0.0000   0.0000
     0.0000   0.0000   0.0000   0.0000   0.0000   0.0000   0.0000   0.0000
     0.0000   0.0000   0.0000   0.0000   0.0000   0.0000   0.0000   0.0000
     0.0000   0.0000   0.0000   0.0000   0.0000   0.0000   0.0000   0.0000
     0.0000   0.0000   0.0000   0.0000   0.0000   0.0000   0.0000   0.0000
     0.0000   0.0000   0.0000   0.0000   0.0000   0.0000   0.0000   0.0000
     0.0000   0.0000   0.0000   0.0000   0.0000   0.0000   0.0000   0.0000
     0.0000   0.0000   0.0000   0.0000   0.0000   0.0000   0.0000   0.0000
     0.0000   0.0000   0.0000   0.0000   0.0000   0.0000   0.0000   0.0000
     0.0000   0.0000   0.0000   0.0000   0.0000   0.0000   0.0000   0.0000
     0.0000   0.0000   0.0000   0.0000   0.0000   0.0000   0.0000   0.0000
     0.0000   0.0000   0.0000   0.0000   0.0000   0.0000   0.0000   0.0000
     0.0000   0.0000   0.0000   0.0000   0.0000   0.0000   0.0000   0.0000
     0.0000   0.0000   0.0000   0.0000   0.0000   0.0000   0.0000   0.0000
     0.0000   0.0000   0.0000   0.0000   0.0000   0.0000   0.0000   0.0000
     0.0000   0.0000   0.0000   0.0000   0.0000   0.0000   0.0000   0.0000
     0.0000   0.0000   0.0000   0.0000   0.0000   0.0000   0.0000   0.0000
     0.0000   0.0000   0.0000   0.0000   0.0000   0.0000   0.0000   0.0000
     0.0000   0.0000   0.0000   0.0000   0.0000   0.0000   0.0000   0.0000
     0.0000   0.0000   0.0000   0.0000   0.0000   0.0000   0.0000   0.0000
     0.0000   0.0000   0.0000   0.0000   0.0000   0.0000   0.0000   0.0000
     0.0000   0.0000   0.0000   0.0000   0.0000   0.0000   0.0000   0.0000
     0.0000   0.0000   0.0000   0.0000   0.0000   0.0000   0.0000   0.0000
     0.0000   0.0000   0.0000   0.0000   0.0000   0.0000   0.0000   0.0000
     0.0000   0.0000   0.0000   0.0000   0.0000   0.0000   0.0000   0.0000
     0.0000   0.0000   0.0000   0.0000   0.0000   0.0000   0.0000   0.0000
     0.0000   0.0000   0.0000   0.0000   0.0000   0.0000   0.0000   0.0000
     0.0000   0.0000   0.0000   0.0000   0.0000   0.0000   0.0000   0.0000
     0.0000   0.0000   0.0000   0.0000   0.0000   0.0000   0.0000   0.0000
     0.0000   0.0000   0.0000   0.0000   0.0000   0.0000   0.0000   0.0000
     0.0000   0.0000   0.0000   0.0000   0.0000   0.0000   0.0000   0.0000
     0.0000   0.0000   0.0000   0.0000   0.0000   0.0000   0.0000   0.0000
     0.0000   0.0000   0.0000   0.0000   0.0000   0.0000   0.0000   0.0000
     0.0000   0.0000   0.0000   0.0000   0.0000   0.0000   0.0000   0.0000
     0.0000   0.0000   0.0000   0.0000   0.0000   0.0000   0.0000   0.0000
     0.0000   0.0000   0.0000   0.0000   0.0000   0.0000   0.0000   0.0000
     0.0000   0.0000   0.0000   0.0000   0.0000   0.0000   0.0000   0.0000
     0.0000   0.0000   0.0000   0.0000   0.0000   0.0000   0.0000   0.0000
     0.0000   0.0000   0.0000   0.0000   0.0000   0.0000   0.0000   0.0000
     0.0000   0.0000   0.0000   0.0000   0.0000   0.0000   0.0000   0.0000
     0.0000   0.0000   0.0000   0.0000   0.0000   0.0000   0.0000   0.0000
     0.0000   0.0000   0.0000   0.0000   0.0000   0.0000   0.0000   0.0000
     0.0000   0.0000   0.0000   0.0000   0.0000   0.0000   0.0000   0.0000
     0.0000   0.0000   0.0000   0.0000   0.0000   0.0000   0.0000   0.0000
     0.0000   0.0000   0.0000   0.0000   0.0000   0.0000   0.0000   0.0000
     0.0000   0.0000   0.0000   0.0000   0.0000   0.0000   0.0000   0.0000
     0.0000   0.0000   0.0000   0.0000   0.0000   0.0000   0.0000   0.0000
     0.0000   0.0000   0.0000   0.0000   0.0000   0.0000   0.0000   0.0000
     0.0000   0.0000   0.0000   0.0000   0.0000   0.0000   0.0000   0.0000
     0.0000   0.0000   0.0000   0.0000   0.0000   0.0000   0.0000   0.0000
     0.0000   0.0000   0.0000   0.0000   0.0000   0.0000   0.0000   0.0000
     0.0000   0.0000   0.0000   0.0000   0.0000   0.0000   0.0000   0.0000
     0.0000   0.0000   0.0000   0.0000   0.0000   0.0000   0.0000   0.0000
     0.0000   0.0000   0.0000   0.0000   0.0000   0.0000   0.0000   0.0000
     0.0000   0.0000   0.0000   0.0000   0.0000   0.0000   0.0000   0.0000
     0.0000   0.0000   0.0000   0.0000   0.0000   0.0000   0.0000   0.0000
     0.0000   0.0000   0.0000   0.0000   0.0000   0.0000   0.0000   0.0000
     0.0000   0.0000   0.0000   0.0000   0.0000   0.0000   0.0000   0.0000

          k =-0.0000 0.0431 0.0000 ( 25209 PWs)   bands (ev):

   -20.1757 -18.3029 -18.2160 -15.0033 -13.8696 -13.6685 -13.4885 -13.3246
   -13.1069 -11.0890 -10.8650  -9.4402  -8.9956  -8.1108  -7.4205  -7.4022
    -7.0895  -6.9770  -5.5454  -5.5251  -3.9189  -3.7328  -3.0988  -2.2945
    -0.8111  -0.3193   0.5091   1.9313   2.4529   3.0619   4.0518   4.3733
     4.4476   5.6312   5.7186   5.8573   5.9875   6.2885   6.5110   6.8724
     7.1169   7.2321   7.9984   8.5977   8.6226   8.7145   9.2421   9.6171
     9.7079   9.8900  10.0090  10.1173  10.4437  10.7026  10.7541  11.0816
    11.0923  11.3056  11.3666  11.5868  11.7015  11.7187  11.9947  12.0868
    12.4328  12.4709  12.5506  12.9945  13.0275  13.2218  13.4545  13.5813
    13.8667  14.0057  14.0145  14.0972  14.2740  14.3499  14.4929  14.6686
    14.7853  14.8895  14.9044  15.0198  15.2530  15.3225  15.4447  15.4595
    15.6255  15.9960  16.1324  16.2932  16.6690  16.8234  16.9575  17.0158
    17.2517  17.2767  17.5189  17.5892  18.0096  18.2499  18.2729  18.4267
    18.7347  18.9071  19.0936  19.1854  19.5265  19.6504  19.6898  19.9748
    20.1086  20.2107  20.4613  20.5284  20.7916  21.2437  21.3026  21.6837
    21.7582  21.8101  21.9064  22.0461  22.3187  22.5119  22.6812  22.7831
    22.8766  23.0251  23.0688  23.1793  23.3153  23.3881  23.5851  23.7016
    23.7757  24.0335  24.1047  24.2774  24.4345  24.6293  24.6705  24.8961
    25.1519  25.1866  25.3094  25.3771  25.6294  25.9227  26.0050  26.0774
    26.3117  26.4608  26.7546  26.7983  27.0179  27.0645  27.0891  27.1745
    27.4245  27.7231  27.7903  28.0435  28.0486  28.5296  28.5969  28.6275
    28.7599  28.7780  28.8816  28.9183  29.5850  29.9713  30.3852  30.5155
    30.6002  30.7567  30.9574  31.1442  31.2009  31.3495  31.3780  31.7825
    31.9702  32.3172  32.4854  32.8019  32.8401  32.9312  32.9420  33.2840
    33.3930  33.4490  33.5225  33.8699  33.8972  33.9363  34.0775  34.2356
    34.2847  34.4803  34.5431  34.6895  34.7700  34.8813  34.8934  35.1022
    35.1224  35.2669  35.2789  35.5599  35.6890  35.7610  35.8801  35.9081
    35.9774  36.0428  36.1492  36.2008  36.4157  36.4463  36.5568  36.6600
    36.9106  36.9575  36.9985  37.1988  37.2607  37.3161  37.4525  37.5147
    37.5276  37.7354  37.8085  38.0032  38.0741  38.1311  38.2617  38.3652
    38.4375  38.5217  38.7147  38.9293  39.1001  39.1404  39.3331  39.3379
    39.4952  39.6180  39.8048  40.0366  40.0512  40.1334  40.2460  40.3074
    40.4521  40.4759  40.5589  40.7952  40.8194  40.9432  41.1035  41.1482
    41.2949  41.6286  41.7004  41.7186  41.9680  42.0235  42.0669  42.0737
[...]
     1.0000   0.0000   0.0000   0.0000   0.0000   0.0000   0.0000   0.0000
     0.0000   0.0000   0.0000   0.0000   0.0000   0.0000   0.0000   0.0000
     0.0000   0.0000   0.0000   0.0000   0.0000   0.0000   0.0000   0.0000
     0.0000   0.0000   0.0000   0.0000   0.0000   0.0000   0.0000   0.0000
     0.0000   0.0000   0.0000   0.0000   0.0000   0.0000   0.0000   0.0000
     0.0000   0.0000   0.0000   0.0000   0.0000   0.0000   0.0000   0.0000
     0.0000   0.0000   0.0000   0.0000   0.0000   0.0000   0.0000   0.0000
     0.0000   0.0000   0.0000   0.0000   0.0000   0.0000   0.0000   0.0000
     0.0000   0.0000   0.0000   0.0000   0.0000   0.0000   0.0000   0.0000
     0.0000   0.0000   0.0000   0.0000   0.0000   0.0000   0.0000   0.0000
     0.0000   0.0000   0.0000   0.0000   0.0000   0.0000   0.0000   0.0000
     0.0000   0.0000   0.0000   0.0000   0.0000   0.0000   0.0000   0.0000
     0.0000   0.0000   0.0000   0.0000   0.0000   0.0000   0.0000   0.0000
     0.0000   0.0000   0.0000   0.0000   0.0000   0.0000   0.0000   0.0000
     0.0000   0.0000   0.0000   0.0000   0.0000   0.0000   0.0000   0.0000
     0.0000   0.0000   0.0000   0.0000   0.0000   0.0000   0.0000   0.0000
     0.0000   0.0000   0.0000   0.0000   0.0000   0.0000   0.0000   0.0000
     0.0000   0.0000   0.0000   0.0000   0.0000   0.0000   0.0000   0.0000
     0.0000   0.0000   0.0000   0.0000   0.0000   0.0000   0.0000   0.0000
     0.0000   0.0000   0.0000   0.0000   0.0000   0.0000   0.0000   0.0000
     0.0000   0.0000   0.0000   0.0000   0.0000   0.0000   0.0000   0.0000
     0.0000   0.0000   0.0000   0.0000   0.0000   0.0000   0.0000   0.0000
     0.0000   0.0000   0.0000   0.0000   0.0000   0.0000   0.0000   0.0000
     0.0000   0.0000   0.0000   0.0000   0.0000   0.0000   0.0000   0.0000
     0.0000   0.0000   0.0000   0.0000   0.0000   0.0000   0.0000   0.0000
     0.0000   0.0000   0.0000   0.0000   0.0000   0.0000   0.0000   0.0000
     0.0000   0.0000   0.0000   0.0000   0.0000   0.0000   0.0000   0.0000
     0.0000   0.0000   0.0000   0.0000   0.0000   0.0000   0.0000   0.0000
     0.0000   0.0000   0.0000   0.0000   0.0000   0.0000   0.0000   0.0000
     0.0000   0.0000   0.0000   0.0000   0.0000   0.0000   0.0000   0.0000
     0.0000   0.0000   0.0000   0.0000   0.0000   0.0000   0.0000   0.0000
     0.0000   0.0000   0.0000   0.0000   0.0000   0.0000   0.0000   0.0000
     0.0000   0.0000   0.0000   0.0000   0.0000   0.0000   0.0000   0.0000
     0.0000   0.0000   0.0000   0.0000   0.0000   0.0000   0.0000   0.0000
     0.0000   0.0000   0.0000   0.0000   0.0000   0.0000   0.0000   0.0000
     0.0000   0.0000   0.0000   0.0000   0.0000   0.0000   0.0000   0.0000
     0.0000   0.0000   0.0000   0.0000   0.0000   0.0000   0.0000   0.0000
     0.0000   0.0000   0.0000   0.0000   0.0000   0.0000   0.0000   0.0000
     0.0000   0.0000   0.0000   0.0000   0.0000   0.0000   0.0000   0.0000
     0.0000   0.0000   0.0000   0.0000   0.0000   0.0000   0.0000   0.0000
     0.0000   0.0000   0.0000   0.0000   0.0000   0.0000   0.0000   0.0000
     0.0000   0.0000   0.0000   0.0000   0.0000   0.0000   0.0000   0.0000
     0.0000   0.0000   0.0000   0.0000   0.0000   0.0000   0.0000   0.0000
     0.0000   0.0000   0.0000   0.0000   0.0000   0.0000   0.0000   0.0000
     0.0000   0.0000   0.0000   0.0000   0.0000   0.0000   0.0000   0.0000
     0.0000   0.0000   0.0000   0.0000   0.0000   0.0000   0.0000   0.0000
     0.0000   0.0000   0.0000   0.0000   0.0000   0.0000   0.0000   0.0000
     0.0000   0.0000   0.0000   0.0000   0.0000   0.0000   0.0000   0.0000
     0.0000   0.0000   0.0000   0.0000   0.0000   0.0000   0.0000   0.0000
     0.0000   0.0000   0.0000   0.0000   0.0000   0.0000   0.0000   0.0000
     0.0000   0.0000   0.0000   0.0000   0.0000   0.0000   0.0000   0.0000
     0.0000   0.0000   0.0000   0.0000   0.0000   0.0000   0.0000   0.0000
     0.0000   0.0000   0.0000   0.0000   0.0000   0.0000   0.0000   0.0000
     0.0000   0.0000   0.0000   0.0000   0.0000   0.0000   0.0000   0.0000
     0.0000   0.0000   0.0000   0.0000   0.0000   0.0000   0.0000   0.0000
     0.0000   0.0000   0.0000   0.0000   0.0000   0.0000   0.0000   0.0000
     0.0000   0.0000   0.0000   0.0000   0.0000   0.0000   0.0000   0.0000
     0.0000   0.0000   0.0000   0.0000   0.0000   0.0000   0.0000   0.0000
     0.0000   0.0000   0.0000   0.0000   0.0000   0.0000   0.0000   0.0000
     0.0000   0.0000   0.0000   0.0000   0.0000   0.0000   0.0000   0.0000
     0.0000   0.0000   0.0000   0.0000   0.0000   0.0000   0.0000   0.0000
     0.0000   0.0000   0.0000   0.0000   0.0000   0.0000   0.0000   0.0000
     0.0000   0.0000   0.0000   0.0000   0.0000   0.0000   0.0000   0.0000
     0.0000   0.0000   0.0000   0.0000   0.0000   0.0000   0.0000   0.0000
     0.0000   0.0000   0.0000   0.0000   0.0000   0.0000   0.0000   0.0000
     0.0000   0.0000   0.0000   0.0000   0.0000   0.0000   0.0000   0.0000
     0.0000   0.0000   0.0000   0.0000   0.0000   0.0000   0.0000   0.0000
     0.0000   0.0000   0.0000   0.0000   0.0000   0.0000   0.0000   0.0000
     0.0000   0.0000   0.0000   0.0000   0.0000   0.0000   0.0000   0.0000
     0.0000   0.0000   0.0000   0.0000   0.0000   0.0000   0.0000   0.0000
     0.0000   0.0000   0.0000   0.0000   0.0000   0.0000   0.0000   0.0000
     0.0000   0.0000   0.0000   0.0000   0.0000   0.0000   0.0000   0.0000

          k =-0.5000-0.8617 0.0000 ( 25152 PWs)   bands (ev):

   -18.4087 -18.3253 -18.1923 -17.9803 -15.1726 -15.0112 -14.2273 -13.4771
    -9.5451  -9.4230  -8.6766  -8.3507  -7.5257  -7.2390  -7.1761  -7.0247
    -6.9542  -6.9362  -6.8667  -6.4420  -5.8320  -5.8253  -4.1636  -3.6140
    -2.8840   1.2897   2.6244   2.6639   4.3607   4.7434   4.8082   4.8295
     5.2629   5.2935   5.6444   5.7300   5.9780   6.0006   6.0365   6.7162
     6.8153   6.8314   6.8680   7.0776   7.9458   8.6516   8.7140   9.0097
     9.1342   9.4229   9.6540   9.6689   9.7145   9.8744   9.9177  10.0852
    10.1168  10.2920  10.4117  10.7609  10.9294  10.9546  11.0109  11.0489
    11.3469  11.3893  11.3973  11.4579  11.9185  12.0689  12.1662  12.2167
    13.7795  14.0581  14.0846  14.1930  14.3755  14.7455  14.9890  15.1132
    15.1709  15.4858  15.6868  16.0940  16.1427  16.1450  16.3340  16.4907
    17.2090  17.2108  17.5485  17.5507  17.5747  17.7307  17.9257  17.9444
    17.9994  18.3421  18.4998  18.5188  19.3518  19.4921  19.5747  19.7367
    20.5490  20.5707  20.6425  20.8503  20.9735  21.0769  21.2365  21.3196
    21.3831  21.4589  21.8949  21.9737  22.0081  22.1783  22.2546  22.3746
    22.3931  22.5694  22.6850  22.8454  22.8607  22.8929  23.0536  23.0567
    23.1042  23.1943  23.2819  23.3172  23.7348  23.7526  23.9267  24.1617
    24.2222  24.2377  24.4123  24.6585  24.7828  24.8399  24.8848  24.9561
    25.0044  25.4993  25.7319  25.7948  25.8327  25.8386  25.8701  25.9918
    26.0302  26.3787  26.5177  26.6745  27.0648  27.0994  27.1031  27.2510
    27.5233  27.5429  27.6707  27.7240  27.7934  27.8743  27.8863  28.1012
    28.1930  28.2136  28.3270  28.4531  28.4721  28.4911  28.5898  28.7044
    28.7933  28.9131  29.4072  29.6046  29.8445  29.8782  30.2527  30.2799
    30.4259  30.6305  30.9347  31.3403  31.3734  31.6276  31.7487  31.9044
    32.0269  32.2974  32.3514  32.4158  32.5354  32.8298  33.0088  33.1295
    33.2169  33.4576  33.5573  33.6399  33.7216  33.8355  33.8698  34.0716
    34.1180  34.1879  34.2750  34.2992  34.3923  34.4336  34.6355  34.8237
    34.9331  35.4693  35.7658  35.8111  36.1211  36.1669  36.3045  36.4438
    36.4791  36.6034  36.7646  36.7751  37.0117  37.0861  37.1893  37.1943
    37.2589  37.7092  37.7341  37.8096  38.1537  38.3210  38.4670  38.6670
    38.7455  38.7860  38.8827  38.9855  39.0881  39.1544  39.3187  39.4290
    39.4485  39.4975  39.6072  39.6533  39.6568  39.7942  39.9168  39.9352
    40.0007  40.0071  40.1453  40.1567  40.3443  40.4836  40.6512  40.8568
    40.8995  40.9012  41.0997  41.1991  41.3652  41.6688  41.9614  42.2204
    42.3552  42.3616  42.4255  42.4761  42.5059  42.6348  42.7354  42.9589
    43.0470  43.0588  43.1927  43.2466  43.2831  43.2935  43.3460  43.4089
    43.6406  43.6523  43.7575  43.7768  43.8666  43.9328  43.9891  44.0273
    44.1098  44.2806  44.3444  44.3464  44.4606  44.5312  44.6254  44.8402
    44.9089  44.9345  45.2137  45.3602  45.8472  45.8764  45.9244  46.1369
    46.8246  47.1667  47.2057  47.5381  47.5873  47.6867  47.8239  48.0425
    48.2229  48.5015  48.5342  48.6015  48.6936  48.8518  49.0429  49.1239
    49.2520  49.3814  49.5338  49.6500  50.0751  50.1125  50.1544  50.3262
    50.3967  50.4493  50.4661  50.6289  50.6809  50.8440  50.8620  51.0541
    51.2424  51.2665  51.3075  51.5161  51.7895  51.8574  51.9131  52.2126
    52.2852  52.5014  52.5377  52.6966  52.8364  52.8383  53.0322  53.2919
    53.3267  53.3856  53.3971  53.6737  53.6889  53.7898  53.8494  54.1910
    54.2220  54.2349  54.3423  54.3656  54.5256  54.6715  54.6935  54.7964
    54.9396  54.9875  55.0213  55.0788  55.0922  55.0983  55.1610  55.1924
    55.3853  55.5384  55.5764  55.7701  55.8336  55.9485  55.9909  56.0090
    56.0605  56.1174  56.1415  56.2470  56.2804  56.3032  56.3592  56.3833
    56.4428  56.4546  56.5602  56.7369  56.8187  56.9137  57.0280  57.0531
    57.1902  57.5579  57.7481  57.8464  58.1320  58.2124  58.2353  58.4228
    58.4917  58.5198  58.6482  58.6601  58.8241  58.8296  58.9390  58.9798
    59.0894  59.1017  59.2068  59.2341  59.4427  59.5159  59.5238  59.6689
    59.7534  59.7892  59.8689  59.9479  59.9614  59.9661  59.9719  60.0751
    60.1476  60.1933  60.2331  60.3384  60.3827  60.3831  60.4164  60.4171
    60.4907  60.5680  60.7413  60.7751  60.9406  60.9660  60.9801  61.0589
    61.1105  61.1213  61.1642  61.2638  61.3263  61.3961  61.4360  61.4363
    61.5985  61.6484  61.7618  61.8090  61.9020  61.9877  62.0091  62.0603
    62.1472  62.5843  62.6449  62.6526  63.0526  63.3019  63.3750  63.4056
    63.5456  63.5567  63.6604  63.7961  64.2668  64.3284  64.5863  64.6506
    64.8167  64.9493  64.9922  65.1471  65.3465  65.4064  65.4904  65.5023
    65.5287  65.6120  65.7306  65.7378  65.8538  65.8896  65.9035  65.9089
    66.0784  66.1168  66.2859  66.3179  66.3721  66.4417  66.4705  66.5335
    66.6016  66.9051  66.9610  67.0373  67.0784  67.0837  67.1113  67.2123
    67.2138  67.2989  67.3832  67.7258  67.7395  67.8289  67.9224  67.9765
    68.0784  68.1067  68.2409  68.2637  68.3016  68.3349  68.3691  68.5643
    68.5805  68.6497  68.7749  68.7912  68.8565  68.8743  69.1229  69.1614
    69.3977  69.4507  69.5445  69.6552  69.9014  70.1071  70.2984  70.3914
    70.4428  70.4690  70.5152  70.6016  70.7076  70.7220  70.7326  70.8772
    70.8864  71.0579  71.1166  71.2890  71.3374  71.4073  71.4970  71.5313
    71.6710  71.7584  71.8416  71.9050  71.9336  72.0201  72.1162  72.1472
    72.2382  72.3157  72.3519  72.3595  72.3734  72.4743  72.4993  72.5224
    72.5456  72.6549  72.7461  72.8091  72.8167  72.8712  72.9395  73.0276
    73.2189  73.2734  73.2979  73.3284  73.5606  73.6190  73.8029  73.9458

     occupation numbers 
     1.0000   1.0000   1.0000   1.0000   1.0000   1.0000   1.0000   1.0000
     1.0000   1.0000   1.0000   1.0000   1.0000   1.0000   1.0000   1.0000
     1.0000   1.0000   1.0000   1.0000   1.0000   1.0000   1.0000   1.0000
     1.0000   0.0000   0.0000   0.0000   0.0000   0.0000   0.0000   0.0000
     0.0000   0.0000   0.0000   0.0000   0.0000   0.0000   0.0000   0.0000
     0.0000   0.0000   0.0000   0.0000   0.0000   0.0000   0.0000   0.0000
     0.0000   0.0000   0.0000   0.0000   0.0000   0.0000   0.0000   0.0000
     0.0000   0.0000   0.0000   0.0000   0.0000   0.0000   0.0000   0.0000
     0.0000   0.0000   0.0000   0.0000   0.0000   0.0000   0.0000   0.0000
     0.0000   0.0000   0.0000   0.0000   0.0000   0.0000   0.0000   0.0000
     0.0000   0.0000   0.0000   0.0000   0.0000   0.0000   0.0000   0.0000
     0.0000   0.0000   0.0000   0.0000   0.0000   0.0000   0.0000   0.0000
     0.0000   0.0000   0.0000   0.0000   0.0000   0.0000   0.0000   0.0000
     0.0000   0.0000   0.0000   0.0000   0.0000   0.0000   0.0000   0.0000
     0.0000   0.0000   0.0000   0.0000   0.0000   0.0000   0.0000   0.0000
     0.0000   0.0000   0.0000   0.0000   0.0000   0.0000   0.0000   0.0000
     0.0000   0.0000   0.0000   0.0000   0.0000   0.0000   0.0000   0.0000
     0.0000   0.0000   0.0000   0.0000   0.0000   0.0000   0.0000   0.0000
     0.0000   0.0000   0.0000   0.0000   0.0000   0.0000   0.0000   0.0000
     0.0000   0.0000   0.0000   0.0000   0.0000   0.0000   0.0000   0.0000
     0.0000   0.0000   0.0000   0.0000   0.0000   0.0000   0.0000   0.0000
     0.0000   0.0000   0.0000   0.0000   0.0000   0.0000   0.0000   0.0000
     0.0000   0.0000   0.0000   0.0000   0.0000   0.0000   0.0000   0.0000
     0.0000   0.0000   0.0000   0.0000   0.0000   0.0000   0.0000   0.0000
     0.0000   0.0000   0.0000   0.0000   0.0000   0.0000   0.0000   0.0000
     0.0000   0.0000   0.0000   0.0000   0.0000   0.0000   0.0000   0.0000
     0.0000   0.0000   0.0000   0.0000   0.0000   0.0000   0.0000   0.0000
     0.0000   0.0000   0.0000   0.0000   0.0000   0.0000   0.0000   0.0000
     0.0000   0.0000   0.0000   0.0000   0.0000   0.0000   0.0000   0.0000
     0.0000   0.0000   0.0000   0.0000   0.0000   0.0000   0.0000   0.0000
     0.0000   0.0000   0.0000   0.0000   0.0000   0.0000   0.0000   0.0000
     0.0000   0.0000   0.0000   0.0000   0.0000   0.0000   0.0000   0.0000
     0.0000   0.0000   0.0000   0.0000   0.0000   0.0000   0.0000   0.0000
     0.0000   0.0000   0.0000   0.0000   0.0000   0.0000   0.0000   0.0000
     0.0000   0.0000   0.0000   0.0000   0.0000   0.0000   0.0000   0.0000
     0.0000   0.0000   0.0000   0.0000   0.0000   0.0000   0.0000   0.0000
     0.0000   0.0000   0.0000   0.0000   0.0000   0.0000   0.0000   0.0000
     0.0000   0.0000   0.0000   0.0000   0.0000   0.0000   0.0000   0.0000
     0.0000   0.0000   0.0000   0.0000   0.0000   0.0000   0.0000   0.0000
     0.0000   0.0000   0.0000   0.0000   0.0000   0.0000   0.0000   0.0000
     0.0000   0.0000   0.0000   0.0000   0.0000   0.0000   0.0000   0.0000
     0.0000   0.0000   0.0000   0.0000   0.0000   0.0000   0.0000   0.0000
     0.0000   0.0000   0.0000   0.0000   0.0000   0.0000   0.0000   0.0000
     0.0000   0.0000   0.0000   0.0000   0.0000   0.0000   0.0000   0.0000
     0.0000   0.0000   0.0000   0.0000   0.0000   0.0000   0.0000   0.0000
     0.0000   0.0000   0.0000   0.0000   0.0000   0.0000   0.0000   0.0000
     0.0000   0.0000   0.0000   0.0000   0.0000   0.0000   0.0000   0.0000
     0.0000   0.0000   0.0000   0.0000   0.0000   0.0000   0.0000   0.0000
     0.0000   0.0000   0.0000   0.0000   0.0000   0.0000   0.0000   0.0000
     0.0000   0.0000   0.0000   0.0000   0.0000   0.0000   0.0000   0.0000
     0.0000   0.0000   0.0000   0.0000   0.0000   0.0000   0.0000   0.0000
     0.0000   0.0000   0.0000   0.0000   0.0000   0.0000   0.0000   0.0000
     0.0000   0.0000   0.0000   0.0000   0.0000   0.0000   0.0000   0.0000
     0.0000   0.0000   0.0000   0.0000   0.0000   0.0000   0.0000   0.0000
     0.0000   0.0000   0.0000   0.0000   0.0000   0.0000   0.0000   0.0000
     0.0000   0.0000   0.0000   0.0000   0.0000   0.0000   0.0000   0.0000
     0.0000   0.0000   0.0000   0.0000   0.0000   0.0000   0.0000   0.0000
     0.0000   0.0000   0.0000   0.0000   0.0000   0.0000   0.0000   0.0000
     0.0000   0.0000   0.0000   0.0000   0.0000   0.0000   0.0000   0.0000
     0.0000   0.0000   0.0000   0.0000   0.0000   0.0000   0.0000   0.0000
     0.0000   0.0000   0.0000   0.0000   0.0000   0.0000   0.0000   0.0000
     0.0000   0.0000   0.0000   0.0000   0.0000   0.0000   0.0000   0.0000
     0.0000   0.0000   0.0000   0.0000   0.0000   0.0000   0.0000   0.0000
     0.0000   0.0000   0.0000   0.0000   0.0000   0.0000   0.0000   0.0000
     0.0000   0.0000   0.0000   0.0000   0.0000   0.0000   0.0000   0.0000
     0.0000   0.0000   0.0000   0.0000   0.0000   0.0000   0.0000   0.0000
     0.0000   0.0000   0.0000   0.0000   0.0000   0.0000   0.0000   0.0000
     0.0000   0.0000   0.0000   0.0000   0.0000   0.0000   0.0000   0.0000
     0.0000   0.0000   0.0000   0.0000   0.0000   0.0000   0.0000   0.0000
     0.0000   0.0000   0.0000   0.0000   0.0000   0.0000   0.0000   0.0000
     0.0000   0.0000   0.0000   0.0000   0.0000   0.0000   0.0000   0.0000
     0.0000   0.0000   0.0000   0.0000   0.0000   0.0000   0.0000   0.0000
     0.0000   0.0000   0.0000   0.0000   0.0000   0.0000   0.0000   0.0000
     0.0000   0.0000   0.0000   0.0000   0.0000   0.0000   0.0000   0.0000
     0.0000   0.0000   0.0000   0.0000   0.0000   0.0000   0.0000   0.0000

     highest occupied, lowest unoccupied level (ev):    -0.7147   -0.4146

     Writing all to output data dir ./kpoints_20x40-nbnds_600.save/
 
     init_run     :      0.31s CPU      0.41s WALL (       1 calls)
     electrons    :    429.54s CPU    456.76s WALL (       1 calls)

     Called by init_run:
     wfcinit      :      0.00s CPU      0.00s WALL (       1 calls)
                                        0.00s GPU  (       1 calls)
     wfcinit:atom :      0.07s CPU      0.08s WALL (     231 calls)
                                        0.08s GPU  (     231 calls)
     wfcinit:wfcr :     18.38s CPU     20.58s WALL (     231 calls)
                                       20.58s GPU  (     231 calls)
     potinit      :      0.02s CPU      0.03s WALL (       1 calls)
     hinit0       :      0.14s CPU      0.17s WALL (       1 calls)

     Called by electrons:
     c_bands      :    429.52s CPU    456.69s WALL (       1 calls)
     v_of_rho     :      0.01s CPU      0.01s WALL (       1 calls)
     v_h          :      0.01s CPU      0.00s WALL (       1 calls)
     v_xc         :      0.01s CPU      0.01s WALL (       1 calls)

     Called by c_bands:
     init_us_2    :      0.09s CPU      0.11s WALL (     231 calls)
     init_us_2:gp :      0.09s CPU      0.11s WALL (     231 calls)
     cegterg      :    397.06s CPU    409.94s WALL (     471 calls)

     Called by sum_band:

     Called by *egterg:
     cdiaghg      :    156.11s CPU    157.51s WALL (    5925 calls)
                                      157.46s GPU  (    5925 calls)
     cegterg:over :     65.13s CPU     74.67s WALL (    5694 calls)
     cegterg:upda :     22.05s CPU     22.12s WALL (    5694 calls)
     cegterg:last :      9.83s CPU      9.87s WALL (    2861 calls)
     h_psi        :    147.61s CPU    150.47s WALL (    6396 calls)
                                      150.39s GPU  (    6396 calls)
     g_psi        :      0.02s CPU      0.63s WALL (    5694 calls)
                                        0.58s GPU  (    5694 calls)

     Called by h_psi:
     h_psi:calbec :      8.48s CPU      9.74s WALL (    6396 calls)
                                        9.68s GPU  (    6396 calls)
     vloc_psi     :    134.78s CPU    136.36s WALL (    6396 calls)
                                      136.30s GPU  (    6396 calls)
     add_vuspsi   :      2.91s CPU      3.77s WALL (    6396 calls)
                                        3.72s GPU  (    6396 calls)

     General routines
     calbec       :      8.39s CPU      9.59s WALL (    6396 calls)
     fft          :      0.01s CPU      0.05s WALL (      11 calls)
                                        0.05s GPU  (      11 calls)
     fftw         :     86.62s CPU    110.17s WALL (  247968 calls)
                                      108.31s GPU  (  247968 calls)
     davcio       :      1.00s CPU     33.32s WALL (     462 calls)
 
     Parallel routines
 
     PWSCF        :   7m41.23s CPU   9m 1.42s WALL

 
   This run was terminated on:  15:11:37   6Feb2025            

=------------------------------------------------------------------------------=
   JOB DONE.
=------------------------------------------------------------------------------=
