
     Program PWSCF v.7.0 starts on 21Jan2026 at 12:52:55 

     This program is part of the open-source Quantum ESPRESSO suite
     for quantum simulation of materials; please cite
         "P. Giannozzi et al., J. Phys.:Condens. Matter 21 395502 (2009);
         "P. Giannozzi et al., J. Phys.:Condens. Matter 29 465901 (2017);
         "P. Giannozzi et al., J. Chem. Phys. 152 154105 (2020);
          URL http://www.quantum-espresso.org", 
     in publications or presentations arising from this work. More details at
     http://www.quantum-espresso.org/quote

     Parallel version (MPI & OpenMP), running on      32 processor cores
     Number of MPI processes:                16
     Threads/MPI process:                     2

     MPI processes distributed on     1 nodes
     R & G space division:  proc/nbgrp/npool/nimage =      16
     121489 MiB available memory on the printing compute node when the environment starts

     Reading input from bands.in

     Current dimensions of program PWSCF are:
     Max number of different atomic species (ntypx) = 10
     Max number of k-points (npk) =  40000
     Max angular momentum in pseudopotentials (lmaxx) =  4

     Atomic positions and unit cell read from directory:
     /mnt/dalessandro-jobid_50294/bands.save/
     Atomic positions from file used, from input discarded

     Message from routine setup:
     using ibrav=0 with symmetry is DISCOURAGED, use correct ibrav instead

     Subspace diagonalization in iterative solution of the eigenvalue problem:
     a serial algorithm will be used


     Parallelization info
     --------------------
     sticks:   dense  smooth     PW     G-vecs:    dense   smooth      PW
     Min         156     156     43                 9572     9572    1397
     Max         157     157     44                 9577     9577    1404
     Sum        2509    2509    697               153199   153199   22405

     Using Slab Decomposition



     bravais-lattice index     =            0
     lattice parameter (alat)  =      13.9710  a.u.
     unit-cell volume          =    1937.9177 (a.u.)^3
     number of atoms/cell      =           12
     number of atomic types    =            1
     number of electrons       =        48.00
     number of Kohn-Sham states=           30
     kinetic-energy cutoff     =      70.0000  Ry
     charge density cutoff     =     280.0000  Ry
     Exchange-correlation= PBE
                           (   1   4   3   4   0   0   0)

     celldm(1)=  13.971023  celldm(2)=   0.000000  celldm(3)=   0.000000
     celldm(4)=   0.000000  celldm(5)=   0.000000  celldm(6)=   0.000000

     crystal axes: (cart. coord. in units of alat)
               a(1) = (   1.000000   0.000000   0.000000 )  
               a(2) = (   0.000000   0.577421   0.000000 )  
               a(3) = (   0.000000   0.000000   1.230717 )  

     reciprocal axes: (cart. coord. in units 2 pi/alat)
               b(1) = (  1.000000 -0.000000  0.000000 )  
               b(2) = ( -0.000000  1.731839  0.000000 )  
               b(3) = (  0.000000  0.000000  0.812534 )  


     PseudoPot. # 1 for C  read from file:
     ../../pseudos/C_ONCV_PBE.upf
     MD5 check sum: 34a24e64c0a39f27c6c36b90a16ac686
     Pseudo is Norm-conserving + core correction, Zval =  4.0
     Generated using ONCVPSP code by D. R. Hamann
     Using radial grid of 1248 points,  4 beta functions with: 
                l(1) =   0
                l(2) =   0
                l(3) =   1
                l(4) =   1

     atomic species   valence    mass     pseudopotential
        C              4.00    12.01100     C ( 1.00)

      4 Sym. Ops. (no inversion) found


                                    s                        frac. trans.

      isym =  1     identity                                     

 cryst.   s( 1) = (     1          0          0      )
                  (     0          1          0      )
                  (     0          0          1      )

 cart.    s( 1) = (  1.0000000  0.0000000  0.0000000 )
                  (  0.0000000  1.0000000  0.0000000 )
                  (  0.0000000  0.0000000  1.0000000 )


      isym =  2     180 deg rotation - cart. axis [1,0,0]        

 cryst.   s( 2) = (     1          0          0      )
                  (     0         -1          0      )
                  (     0          0         -1      )

 cart.    s( 2) = (  1.0000000 -0.0000000  0.0000000 )
                  (  0.0000003 -1.0000000  0.0000000 )
                  (  0.0000000  0.0000000 -1.0000000 )


      isym =  3     inv. 180 deg rotation - cart. axis [0,0,1]   

 cryst.   s( 3) = (     1          0          0      )
                  (     0          1          0      )
                  (     0          0         -1      )

 cart.    s( 3) = (  1.0000000  0.0000000  0.0000000 )
                  (  0.0000000  1.0000000  0.0000000 )
                  (  0.0000000  0.0000000 -1.0000000 )


      isym =  4     inv. 180 deg rotation - cart. axis [0,1,0]   

 cryst.   s( 4) = (     1          0          0      )
                  (     0         -1          0      )
                  (     0          0          1      )

 cart.    s( 4) = (  1.0000000 -0.0000000  0.0000000 )
                  (  0.0000003 -1.0000000  0.0000000 )
                  (  0.0000000  0.0000000  1.0000000 )


   Cartesian axes

     site n.     atom                  positions (alat units)
         1           C   tau(   1) = (  -0.2467197   0.1924714   0.0000000  )
         2           C   tau(   2) = (   0.0866140   0.1924720   0.0000000  )
         3           C   tau(   3) = (   0.4199478   0.1924720   0.0000000  )
         4           C   tau(   4) = (  -0.0800502   0.0962452   0.0000000  )
         5           C   tau(   5) = (   0.2532838   0.0962448   0.0000000  )
         6           C   tau(   6) = (  -0.4133832  -0.0962448   0.0000000  )
         7           C   tau(   7) = (  -0.0800502  -0.0962452   0.0000000  )
         8           C   tau(   8) = (   0.2532838  -0.0962448   0.0000000  )
         9           C   tau(   9) = (  -0.2467197  -0.1924714   0.0000000  )
        10           C   tau(  10) = (   0.0866140  -0.1924720   0.0000000  )
        11           C   tau(  11) = (   0.4199478  -0.1924720   0.0000000  )
        12           C   tau(  12) = (  -0.4133832   0.0962448   0.0000000  )

   Crystallographic axes

     site n.     atom                  positions (cryst. coord.)
         1           C   tau(   1) = ( -0.2467197  0.3333294  0.0000000  )
         2           C   tau(   2) = (  0.0866140  0.3333305  0.0000000  )
         3           C   tau(   3) = (  0.4199478  0.3333304  0.0000000  )
         4           C   tau(   4) = ( -0.0800502  0.1666812  0.0000000  )
         5           C   tau(   5) = (  0.2532838  0.1666804  0.0000000  )
         6           C   tau(   6) = ( -0.4133832 -0.1666804  0.0000000  )
         7           C   tau(   7) = ( -0.0800502 -0.1666811  0.0000000  )
         8           C   tau(   8) = (  0.2532838 -0.1666805  0.0000000  )
         9           C   tau(   9) = ( -0.2467197 -0.3333293  0.0000000  )
        10           C   tau(  10) = (  0.0866140 -0.3333305  0.0000000  )
        11           C   tau(  11) = (  0.4199478 -0.3333306  0.0000000  )
        12           C   tau(  12) = ( -0.4133832  0.1666806  0.0000000  )

     number of k points=   151
                       cart. coord. in units 2pi/alat
        k(    1) = (   0.0000000   0.0000000   0.0000000), wk =   0.0132450
        k(    2) = (   0.0000000   0.0287237   0.0000000), wk =   0.0132450
        k(    3) = (   0.0000000   0.0574474   0.0000000), wk =   0.0132450
        k(    4) = (   0.0000000   0.0861711   0.0000000), wk =   0.0132450
        k(    5) = (   0.0000000   0.1148948   0.0000000), wk =   0.0132450
        k(    6) = (   0.0000000   0.1436185   0.0000000), wk =   0.0132450
        k(    7) = (   0.0000000   0.1723422   0.0000000), wk =   0.0132450
        k(    8) = (   0.0000000   0.2010659   0.0000000), wk =   0.0132450
        k(    9) = (   0.0000000   0.2297896   0.0000000), wk =   0.0132450
        k(   10) = (   0.0000000   0.2585133   0.0000000), wk =   0.0132450
        k(   11) = (   0.0000000   0.2872370   0.0000000), wk =   0.0132450
        k(   12) = (   0.0000000   0.3159607   0.0000000), wk =   0.0132450
        k(   13) = (   0.0000000   0.3446844   0.0000000), wk =   0.0132450
        k(   14) = (   0.0000000   0.3734081   0.0000000), wk =   0.0132450
        k(   15) = (   0.0000000   0.4021318   0.0000000), wk =   0.0132450
        k(   16) = (   0.0000000   0.4308554   0.0000000), wk =   0.0132450
        k(   17) = (   0.0000000   0.4595791   0.0000000), wk =   0.0132450
        k(   18) = (   0.0000000   0.4883028   0.0000000), wk =   0.0132450
        k(   19) = (   0.0000000   0.5170265   0.0000000), wk =   0.0132450
        k(   20) = (   0.0000000   0.5457502   0.0000000), wk =   0.0132450
        k(   21) = (   0.0000000   0.5744739   0.0000000), wk =   0.0132450
        k(   22) = (   0.0000000   0.6031976   0.0000000), wk =   0.0132450
        k(   23) = (   0.0000000   0.6319213   0.0000000), wk =   0.0132450
        k(   24) = (   0.0000000   0.6606450   0.0000000), wk =   0.0132450
        k(   25) = (   0.0000000   0.6893687   0.0000000), wk =   0.0132450
        k(   26) = (   0.0000000   0.7180924   0.0000000), wk =   0.0132450
        k(   27) = (   0.0000000   0.7468161   0.0000000), wk =   0.0132450
        k(   28) = (   0.0000000   0.7755398   0.0000000), wk =   0.0132450
        k(   29) = (   0.0000000   0.8042635   0.0000000), wk =   0.0132450
        k(   30) = (   0.0000000   0.8329872   0.0000000), wk =   0.0132450
        k(   31) = (   0.0000000   0.8617109   0.0000000), wk =   0.0132450
        k(   32) = (   0.0166667   0.8617109   0.0000000), wk =   0.0132450
        k(   33) = (   0.0333333   0.8617109   0.0000000), wk =   0.0132450
        k(   34) = (   0.0500000   0.8617109   0.0000000), wk =   0.0132450
        k(   35) = (   0.0666667   0.8617109   0.0000000), wk =   0.0132450
        k(   36) = (   0.0833333   0.8617109   0.0000000), wk =   0.0132450
        k(   37) = (   0.1000000   0.8617109   0.0000000), wk =   0.0132450
        k(   38) = (   0.1166667   0.8617109   0.0000000), wk =   0.0132450
        k(   39) = (   0.1333333   0.8617109   0.0000000), wk =   0.0132450
        k(   40) = (   0.1500000   0.8617109   0.0000000), wk =   0.0132450
        k(   41) = (   0.1666667   0.8617109   0.0000000), wk =   0.0132450
        k(   42) = (   0.1833333   0.8617109   0.0000000), wk =   0.0132450
        k(   43) = (   0.2000000   0.8617109   0.0000000), wk =   0.0132450
        k(   44) = (   0.2166667   0.8617109   0.0000000), wk =   0.0132450
        k(   45) = (   0.2333333   0.8617109   0.0000000), wk =   0.0132450
        k(   46) = (   0.2500000   0.8617109   0.0000000), wk =   0.0132450
        k(   47) = (   0.2666667   0.8617109   0.0000000), wk =   0.0132450
        k(   48) = (   0.2833333   0.8617109   0.0000000), wk =   0.0132450
        k(   49) = (   0.3000000   0.8617109   0.0000000), wk =   0.0132450
        k(   50) = (   0.3166667   0.8617109   0.0000000), wk =   0.0132450
        k(   51) = (   0.3333333   0.8617109   0.0000000), wk =   0.0132450
        k(   52) = (   0.3500000   0.8617109   0.0000000), wk =   0.0132450
        k(   53) = (   0.3666667   0.8617109   0.0000000), wk =   0.0132450
        k(   54) = (   0.3833333   0.8617109   0.0000000), wk =   0.0132450
        k(   55) = (   0.4000000   0.8617109   0.0000000), wk =   0.0132450
        k(   56) = (   0.4166667   0.8617109   0.0000000), wk =   0.0132450
        k(   57) = (   0.4333333   0.8617109   0.0000000), wk =   0.0132450
        k(   58) = (   0.4500000   0.8617109   0.0000000), wk =   0.0132450
        k(   59) = (   0.4666667   0.8617109   0.0000000), wk =   0.0132450
        k(   60) = (   0.4833333   0.8617109   0.0000000), wk =   0.0132450
        k(   61) = (   0.5000000   0.8617109   0.0000000), wk =   0.0132450
        k(   62) = (   0.5000000   0.8329872   0.0000000), wk =   0.0132450
        k(   63) = (   0.5000000   0.8042635   0.0000000), wk =   0.0132450
        k(   64) = (   0.5000000   0.7755398   0.0000000), wk =   0.0132450
        k(   65) = (   0.5000000   0.7468161   0.0000000), wk =   0.0132450
        k(   66) = (   0.5000000   0.7180924   0.0000000), wk =   0.0132450
        k(   67) = (   0.5000000   0.6893687   0.0000000), wk =   0.0132450
        k(   68) = (   0.5000000   0.6606450   0.0000000), wk =   0.0132450
        k(   69) = (   0.5000000   0.6319213   0.0000000), wk =   0.0132450
        k(   70) = (   0.5000000   0.6031976   0.0000000), wk =   0.0132450
        k(   71) = (   0.5000000   0.5744739   0.0000000), wk =   0.0132450
        k(   72) = (   0.5000000   0.5457502   0.0000000), wk =   0.0132450
        k(   73) = (   0.5000000   0.5170265   0.0000000), wk =   0.0132450
        k(   74) = (   0.5000000   0.4883028   0.0000000), wk =   0.0132450
        k(   75) = (   0.5000000   0.4595791   0.0000000), wk =   0.0132450
        k(   76) = (   0.5000000   0.4308554   0.0000000), wk =   0.0132450
        k(   77) = (   0.5000000   0.4021318   0.0000000), wk =   0.0132450
        k(   78) = (   0.5000000   0.3734081   0.0000000), wk =   0.0132450
        k(   79) = (   0.5000000   0.3446844   0.0000000), wk =   0.0132450
        k(   80) = (   0.5000000   0.3159607   0.0000000), wk =   0.0132450
        k(   81) = (   0.5000000   0.2872370   0.0000000), wk =   0.0132450
        k(   82) = (   0.5000000   0.2585133   0.0000000), wk =   0.0132450
        k(   83) = (   0.5000000   0.2297896   0.0000000), wk =   0.0132450
        k(   84) = (   0.5000000   0.2010659   0.0000000), wk =   0.0132450
        k(   85) = (   0.5000000   0.1723422   0.0000000), wk =   0.0132450
        k(   86) = (   0.5000000   0.1436185   0.0000000), wk =   0.0132450
        k(   87) = (   0.5000000   0.1148948   0.0000000), wk =   0.0132450
        k(   88) = (   0.5000000   0.0861711   0.0000000), wk =   0.0132450
        k(   89) = (   0.5000000   0.0574474   0.0000000), wk =   0.0132450
        k(   90) = (   0.5000000   0.0287237   0.0000000), wk =   0.0132450
        k(   91) = (   0.5000000   0.0000000   0.0000000), wk =   0.0132450
        k(   92) = (   0.4833333   0.0000000   0.0000000), wk =   0.0132450
        k(   93) = (   0.4666667   0.0000000   0.0000000), wk =   0.0132450
        k(   94) = (   0.4500000   0.0000000   0.0000000), wk =   0.0132450
        k(   95) = (   0.4333333   0.0000000   0.0000000), wk =   0.0132450
        k(   96) = (   0.4166667   0.0000000   0.0000000), wk =   0.0132450
        k(   97) = (   0.4000000   0.0000000   0.0000000), wk =   0.0132450
        k(   98) = (   0.3833333   0.0000000   0.0000000), wk =   0.0132450
        k(   99) = (   0.3666667   0.0000000   0.0000000), wk =   0.0132450
        k(  100) = (   0.3500000   0.0000000   0.0000000), wk =   0.0132450
        k(  101) = (   0.3333333   0.0000000   0.0000000), wk =   0.0132450
        k(  102) = (   0.3166667   0.0000000   0.0000000), wk =   0.0132450
        k(  103) = (   0.3000000   0.0000000   0.0000000), wk =   0.0132450
        k(  104) = (   0.2833333   0.0000000   0.0000000), wk =   0.0132450
        k(  105) = (   0.2666667   0.0000000   0.0000000), wk =   0.0132450
        k(  106) = (   0.2500000   0.0000000   0.0000000), wk =   0.0132450
        k(  107) = (   0.2333333   0.0000000   0.0000000), wk =   0.0132450
        k(  108) = (   0.2166667   0.0000000   0.0000000), wk =   0.0132450
        k(  109) = (   0.2000000   0.0000000   0.0000000), wk =   0.0132450
        k(  110) = (   0.1833333   0.0000000   0.0000000), wk =   0.0132450
        k(  111) = (   0.1666667   0.0000000   0.0000000), wk =   0.0132450
        k(  112) = (   0.1500000   0.0000000   0.0000000), wk =   0.0132450
        k(  113) = (   0.1333333   0.0000000   0.0000000), wk =   0.0132450
        k(  114) = (   0.1166667   0.0000000   0.0000000), wk =   0.0132450
        k(  115) = (   0.1000000   0.0000000   0.0000000), wk =   0.0132450
        k(  116) = (   0.0833333   0.0000000   0.0000000), wk =   0.0132450
        k(  117) = (   0.0666667   0.0000000   0.0000000), wk =   0.0132450
        k(  118) = (   0.0500000   0.0000000   0.0000000), wk =   0.0132450
        k(  119) = (   0.0333333   0.0000000   0.0000000), wk =   0.0132450
        k(  120) = (   0.0166667   0.0000000   0.0000000), wk =   0.0132450
        k(  121) = (   0.0000000   0.0000000   0.0000000), wk =   0.0132450
        k(  122) = (   0.0166667   0.0287237   0.0000000), wk =   0.0132450
        k(  123) = (   0.0333333   0.0574474   0.0000000), wk =   0.0132450
        k(  124) = (   0.0500000   0.0861711   0.0000000), wk =   0.0132450
        k(  125) = (   0.0666667   0.1148948   0.0000000), wk =   0.0132450
        k(  126) = (   0.0833333   0.1436185   0.0000000), wk =   0.0132450
        k(  127) = (   0.1000000   0.1723422   0.0000000), wk =   0.0132450
        k(  128) = (   0.1166667   0.2010659   0.0000000), wk =   0.0132450
        k(  129) = (   0.1333333   0.2297896   0.0000000), wk =   0.0132450
        k(  130) = (   0.1500000   0.2585133   0.0000000), wk =   0.0132450
        k(  131) = (   0.1666667   0.2872370   0.0000000), wk =   0.0132450
        k(  132) = (   0.1833333   0.3159607   0.0000000), wk =   0.0132450
        k(  133) = (   0.2000000   0.3446844   0.0000000), wk =   0.0132450
        k(  134) = (   0.2166667   0.3734081   0.0000000), wk =   0.0132450
        k(  135) = (   0.2333333   0.4021318   0.0000000), wk =   0.0132450
        k(  136) = (   0.2500000   0.4308554   0.0000000), wk =   0.0132450
        k(  137) = (   0.2666667   0.4595791   0.0000000), wk =   0.0132450
        k(  138) = (   0.2833333   0.4883028   0.0000000), wk =   0.0132450
        k(  139) = (   0.3000000   0.5170265   0.0000000), wk =   0.0132450
        k(  140) = (   0.3166667   0.5457502   0.0000000), wk =   0.0132450
        k(  141) = (   0.3333333   0.5744739   0.0000000), wk =   0.0132450
        k(  142) = (   0.3500000   0.6031976   0.0000000), wk =   0.0132450
        k(  143) = (   0.3666667   0.6319213   0.0000000), wk =   0.0132450
        k(  144) = (   0.3833333   0.6606450   0.0000000), wk =   0.0132450
        k(  145) = (   0.4000000   0.6893687   0.0000000), wk =   0.0132450
        k(  146) = (   0.4166667   0.7180924   0.0000000), wk =   0.0132450
        k(  147) = (   0.4333333   0.7468161   0.0000000), wk =   0.0132450
        k(  148) = (   0.4500000   0.7755398   0.0000000), wk =   0.0132450
        k(  149) = (   0.4666667   0.8042635   0.0000000), wk =   0.0132450
        k(  150) = (   0.4833333   0.8329872   0.0000000), wk =   0.0132450
        k(  151) = (   0.5000000   0.8617109   0.0000000), wk =   0.0132450

                       cryst. coord.
        k(    1) = (   0.0000000   0.0000000   0.0000000), wk =   0.0132450
        k(    2) = (   0.0000000   0.0165857   0.0000000), wk =   0.0132450
        k(    3) = (   0.0000000   0.0331713   0.0000000), wk =   0.0132450
        k(    4) = (   0.0000000   0.0497570   0.0000000), wk =   0.0132450
        k(    5) = (   0.0000000   0.0663427   0.0000000), wk =   0.0132450
        k(    6) = (   0.0000000   0.0829283   0.0000000), wk =   0.0132450
        k(    7) = (   0.0000000   0.0995140   0.0000000), wk =   0.0132450
        k(    8) = (   0.0000000   0.1160996   0.0000000), wk =   0.0132450
        k(    9) = (   0.0000000   0.1326853   0.0000000), wk =   0.0132450
        k(   10) = (   0.0000000   0.1492710   0.0000000), wk =   0.0132450
        k(   11) = (   0.0000000   0.1658566   0.0000000), wk =   0.0132450
        k(   12) = (   0.0000000   0.1824423   0.0000000), wk =   0.0132450
        k(   13) = (   0.0000000   0.1990280   0.0000000), wk =   0.0132450
        k(   14) = (   0.0000001   0.2156136   0.0000000), wk =   0.0132450
        k(   15) = (   0.0000001   0.2321993   0.0000000), wk =   0.0132450
        k(   16) = (   0.0000001   0.2487850   0.0000000), wk =   0.0132450
        k(   17) = (   0.0000001   0.2653706   0.0000000), wk =   0.0132450
        k(   18) = (   0.0000001   0.2819563   0.0000000), wk =   0.0132450
        k(   19) = (   0.0000001   0.2985420   0.0000000), wk =   0.0132450
        k(   20) = (   0.0000001   0.3151276   0.0000000), wk =   0.0132450
        k(   21) = (   0.0000001   0.3317133   0.0000000), wk =   0.0132450
        k(   22) = (   0.0000001   0.3482989   0.0000000), wk =   0.0132450
        k(   23) = (   0.0000001   0.3648846   0.0000000), wk =   0.0132450
        k(   24) = (   0.0000001   0.3814703   0.0000000), wk =   0.0132450
        k(   25) = (   0.0000001   0.3980559   0.0000000), wk =   0.0132450
        k(   26) = (   0.0000001   0.4146416   0.0000000), wk =   0.0132450
        k(   27) = (   0.0000001   0.4312273   0.0000000), wk =   0.0132450
        k(   28) = (   0.0000001   0.4478129   0.0000000), wk =   0.0132450
        k(   29) = (   0.0000001   0.4643986   0.0000000), wk =   0.0132450
        k(   30) = (   0.0000001   0.4809843   0.0000000), wk =   0.0132450
        k(   31) = (   0.0000001   0.4975699   0.0000000), wk =   0.0132450
        k(   32) = (   0.0166668   0.4975699   0.0000000), wk =   0.0132450
        k(   33) = (   0.0333334   0.4975699   0.0000000), wk =   0.0132450
        k(   34) = (   0.0500001   0.4975699   0.0000000), wk =   0.0132450
        k(   35) = (   0.0666668   0.4975699   0.0000000), wk =   0.0132450
        k(   36) = (   0.0833334   0.4975699   0.0000000), wk =   0.0132450
        k(   37) = (   0.1000001   0.4975699   0.0000000), wk =   0.0132450
        k(   38) = (   0.1166668   0.4975699   0.0000000), wk =   0.0132450
        k(   39) = (   0.1333334   0.4975699   0.0000000), wk =   0.0132450
        k(   40) = (   0.1500001   0.4975699   0.0000000), wk =   0.0132450
        k(   41) = (   0.1666668   0.4975699   0.0000000), wk =   0.0132450
        k(   42) = (   0.1833334   0.4975699   0.0000000), wk =   0.0132450
        k(   43) = (   0.2000001   0.4975699   0.0000000), wk =   0.0132450
        k(   44) = (   0.2166668   0.4975699   0.0000000), wk =   0.0132450
        k(   45) = (   0.2333334   0.4975699   0.0000000), wk =   0.0132450
        k(   46) = (   0.2500001   0.4975699   0.0000000), wk =   0.0132450
        k(   47) = (   0.2666668   0.4975699   0.0000000), wk =   0.0132450
        k(   48) = (   0.2833334   0.4975699   0.0000000), wk =   0.0132450
        k(   49) = (   0.3000001   0.4975699   0.0000000), wk =   0.0132450
        k(   50) = (   0.3166668   0.4975699   0.0000000), wk =   0.0132450
        k(   51) = (   0.3333334   0.4975699   0.0000000), wk =   0.0132450
        k(   52) = (   0.3500001   0.4975699   0.0000000), wk =   0.0132450
        k(   53) = (   0.3666668   0.4975699   0.0000000), wk =   0.0132450
        k(   54) = (   0.3833334   0.4975699   0.0000000), wk =   0.0132450
        k(   55) = (   0.4000001   0.4975699   0.0000000), wk =   0.0132450
        k(   56) = (   0.4166668   0.4975699   0.0000000), wk =   0.0132450
        k(   57) = (   0.4333334   0.4975699   0.0000000), wk =   0.0132450
        k(   58) = (   0.4500001   0.4975699   0.0000000), wk =   0.0132450
        k(   59) = (   0.4666668   0.4975699   0.0000000), wk =   0.0132450
        k(   60) = (   0.4833334   0.4975699   0.0000000), wk =   0.0132450
        k(   61) = (   0.5000001   0.4975699   0.0000000), wk =   0.0132450
        k(   62) = (   0.5000001   0.4809843   0.0000000), wk =   0.0132450
        k(   63) = (   0.5000001   0.4643986   0.0000000), wk =   0.0132450
        k(   64) = (   0.5000001   0.4478129   0.0000000), wk =   0.0132450
        k(   65) = (   0.5000001   0.4312273   0.0000000), wk =   0.0132450
        k(   66) = (   0.5000001   0.4146416   0.0000000), wk =   0.0132450
        k(   67) = (   0.5000001   0.3980559   0.0000000), wk =   0.0132450
        k(   68) = (   0.5000001   0.3814703   0.0000000), wk =   0.0132450
        k(   69) = (   0.5000001   0.3648846   0.0000000), wk =   0.0132450
        k(   70) = (   0.5000001   0.3482989   0.0000000), wk =   0.0132450
        k(   71) = (   0.5000001   0.3317133   0.0000000), wk =   0.0132450
        k(   72) = (   0.5000001   0.3151276   0.0000000), wk =   0.0132450
        k(   73) = (   0.5000001   0.2985420   0.0000000), wk =   0.0132450
        k(   74) = (   0.5000001   0.2819563   0.0000000), wk =   0.0132450
        k(   75) = (   0.5000001   0.2653706   0.0000000), wk =   0.0132450
        k(   76) = (   0.5000001   0.2487850   0.0000000), wk =   0.0132450
        k(   77) = (   0.5000001   0.2321993   0.0000000), wk =   0.0132450
        k(   78) = (   0.5000001   0.2156136   0.0000000), wk =   0.0132450
        k(   79) = (   0.5000000   0.1990280   0.0000000), wk =   0.0132450
        k(   80) = (   0.5000000   0.1824423   0.0000000), wk =   0.0132450
        k(   81) = (   0.5000000   0.1658566   0.0000000), wk =   0.0132450
        k(   82) = (   0.5000000   0.1492710   0.0000000), wk =   0.0132450
        k(   83) = (   0.5000000   0.1326853   0.0000000), wk =   0.0132450
        k(   84) = (   0.5000000   0.1160996   0.0000000), wk =   0.0132450
        k(   85) = (   0.5000000   0.0995140   0.0000000), wk =   0.0132450
        k(   86) = (   0.5000000   0.0829283   0.0000000), wk =   0.0132450
        k(   87) = (   0.5000000   0.0663427   0.0000000), wk =   0.0132450
        k(   88) = (   0.5000000   0.0497570   0.0000000), wk =   0.0132450
        k(   89) = (   0.5000000   0.0331713   0.0000000), wk =   0.0132450
        k(   90) = (   0.5000000   0.0165857   0.0000000), wk =   0.0132450
        k(   91) = (   0.5000000   0.0000000   0.0000000), wk =   0.0132450
        k(   92) = (   0.4833333   0.0000000   0.0000000), wk =   0.0132450
        k(   93) = (   0.4666667   0.0000000   0.0000000), wk =   0.0132450
        k(   94) = (   0.4500000   0.0000000   0.0000000), wk =   0.0132450
        k(   95) = (   0.4333333   0.0000000   0.0000000), wk =   0.0132450
        k(   96) = (   0.4166667   0.0000000   0.0000000), wk =   0.0132450
        k(   97) = (   0.4000000   0.0000000   0.0000000), wk =   0.0132450
        k(   98) = (   0.3833333   0.0000000   0.0000000), wk =   0.0132450
        k(   99) = (   0.3666667   0.0000000   0.0000000), wk =   0.0132450
        k(  100) = (   0.3500000   0.0000000   0.0000000), wk =   0.0132450
        k(  101) = (   0.3333333   0.0000000   0.0000000), wk =   0.0132450
        k(  102) = (   0.3166667   0.0000000   0.0000000), wk =   0.0132450
        k(  103) = (   0.3000000   0.0000000   0.0000000), wk =   0.0132450
        k(  104) = (   0.2833333   0.0000000   0.0000000), wk =   0.0132450
        k(  105) = (   0.2666667   0.0000000   0.0000000), wk =   0.0132450
        k(  106) = (   0.2500000   0.0000000   0.0000000), wk =   0.0132450
        k(  107) = (   0.2333333   0.0000000   0.0000000), wk =   0.0132450
        k(  108) = (   0.2166667   0.0000000   0.0000000), wk =   0.0132450
        k(  109) = (   0.2000000   0.0000000   0.0000000), wk =   0.0132450
        k(  110) = (   0.1833333   0.0000000   0.0000000), wk =   0.0132450
        k(  111) = (   0.1666667   0.0000000   0.0000000), wk =   0.0132450
        k(  112) = (   0.1500000   0.0000000   0.0000000), wk =   0.0132450
        k(  113) = (   0.1333333   0.0000000   0.0000000), wk =   0.0132450
        k(  114) = (   0.1166667   0.0000000   0.0000000), wk =   0.0132450
        k(  115) = (   0.1000000   0.0000000   0.0000000), wk =   0.0132450
        k(  116) = (   0.0833333   0.0000000   0.0000000), wk =   0.0132450
        k(  117) = (   0.0666667   0.0000000   0.0000000), wk =   0.0132450
        k(  118) = (   0.0500000   0.0000000   0.0000000), wk =   0.0132450
        k(  119) = (   0.0333333   0.0000000   0.0000000), wk =   0.0132450
        k(  120) = (   0.0166667   0.0000000   0.0000000), wk =   0.0132450
        k(  121) = (   0.0000000   0.0000000   0.0000000), wk =   0.0132450
        k(  122) = (   0.0166667   0.0165857   0.0000000), wk =   0.0132450
        k(  123) = (   0.0333333   0.0331713   0.0000000), wk =   0.0132450
        k(  124) = (   0.0500000   0.0497570   0.0000000), wk =   0.0132450
        k(  125) = (   0.0666667   0.0663427   0.0000000), wk =   0.0132450
        k(  126) = (   0.0833334   0.0829283   0.0000000), wk =   0.0132450
        k(  127) = (   0.1000000   0.0995140   0.0000000), wk =   0.0132450
        k(  128) = (   0.1166667   0.1160996   0.0000000), wk =   0.0132450
        k(  129) = (   0.1333334   0.1326853   0.0000000), wk =   0.0132450
        k(  130) = (   0.1500000   0.1492710   0.0000000), wk =   0.0132450
        k(  131) = (   0.1666667   0.1658566   0.0000000), wk =   0.0132450
        k(  132) = (   0.1833334   0.1824423   0.0000000), wk =   0.0132450
        k(  133) = (   0.2000000   0.1990280   0.0000000), wk =   0.0132450
        k(  134) = (   0.2166667   0.2156136   0.0000000), wk =   0.0132450
        k(  135) = (   0.2333334   0.2321993   0.0000000), wk =   0.0132450
        k(  136) = (   0.2500001   0.2487850   0.0000000), wk =   0.0132450
        k(  137) = (   0.2666667   0.2653706   0.0000000), wk =   0.0132450
        k(  138) = (   0.2833334   0.2819563   0.0000000), wk =   0.0132450
        k(  139) = (   0.3000001   0.2985420   0.0000000), wk =   0.0132450
        k(  140) = (   0.3166667   0.3151276   0.0000000), wk =   0.0132450
        k(  141) = (   0.3333334   0.3317133   0.0000000), wk =   0.0132450
        k(  142) = (   0.3500001   0.3482989   0.0000000), wk =   0.0132450
        k(  143) = (   0.3666668   0.3648846   0.0000000), wk =   0.0132450
        k(  144) = (   0.3833334   0.3814703   0.0000000), wk =   0.0132450
        k(  145) = (   0.4000001   0.3980559   0.0000000), wk =   0.0132450
        k(  146) = (   0.4166668   0.4146416   0.0000000), wk =   0.0132450
        k(  147) = (   0.4333334   0.4312273   0.0000000), wk =   0.0132450
        k(  148) = (   0.4500001   0.4478129   0.0000000), wk =   0.0132450
        k(  149) = (   0.4666668   0.4643986   0.0000000), wk =   0.0132450
        k(  150) = (   0.4833334   0.4809843   0.0000000), wk =   0.0132450
        k(  151) = (   0.5000001   0.4975699   0.0000000), wk =   0.0132450

     Dense  grid:   153199 G-vectors     FFT dimensions: (  75,  45,  96)

     Dynamical RAM for                 wfc:       0.55 MB

     Dynamical RAM for     wfc (w. buffer):       0.55 MB

     Dynamical RAM for           str. fact:       0.15 MB

     Dynamical RAM for           local pot:       0.00 MB

     Dynamical RAM for          nlocal pot:       1.75 MB

     Dynamical RAM for                qrad:       0.38 MB

     Dynamical RAM for          rho,v,vnew:       0.90 MB

     Dynamical RAM for           G-vectors:       0.62 MB

     Dynamical RAM for          h,s,v(r/c):       0.16 MB

     Dynamical RAM for          <psi|beta>:       0.04 MB

     Dynamical RAM for                 psi:       1.10 MB

     Dynamical RAM for                hpsi:       1.10 MB

     Dynamical RAM for      wfcinit/wfcrot:       1.81 MB

     Estimated static dynamical RAM per process >       5.42 MB

     Estimated max dynamical RAM per process >       7.82 MB

     Estimated total dynamical RAM >     125.11 MB

     The potential is recalculated from file :
     /mnt/dalessandro-jobid_50294/bands.save/charge-density

     Starting wfcs are   48 randomized atomic wfcs

     Band Structure Calculation
     Davidson diagonalization with overlap

     Computing kpt #:     1  of   151
     total cpu time spent up to now is        1.2 secs

     Computing kpt #:     2  of   151
     total cpu time spent up to now is        1.7 secs

     Computing kpt #:     3  of   151
     total cpu time spent up to now is        2.2 secs

     Computing kpt #:     4  of   151
     total cpu time spent up to now is        2.6 secs

     Computing kpt #:     5  of   151
     total cpu time spent up to now is        3.1 secs

     Computing kpt #:     6  of   151
     total cpu time spent up to now is        3.5 secs

     Computing kpt #:     7  of   151
     total cpu time spent up to now is        4.1 secs

     Computing kpt #:     8  of   151
     total cpu time spent up to now is        4.5 secs

     Computing kpt #:     9  of   151
     total cpu time spent up to now is        5.0 secs

     Computing kpt #:    10  of   151
     total cpu time spent up to now is        5.5 secs

     Computing kpt #:    11  of   151
     total cpu time spent up to now is        6.0 secs

     Computing kpt #:    12  of   151
     total cpu time spent up to now is        6.5 secs

     Computing kpt #:    13  of   151
     total cpu time spent up to now is        7.0 secs

     Computing kpt #:    14  of   151
     total cpu time spent up to now is        7.5 secs

     Computing kpt #:    15  of   151
     total cpu time spent up to now is        8.0 secs

     Computing kpt #:    16  of   151
     total cpu time spent up to now is        8.5 secs

     Computing kpt #:    17  of   151
     total cpu time spent up to now is        9.0 secs

     Computing kpt #:    18  of   151
     total cpu time spent up to now is        9.4 secs

     Computing kpt #:    19  of   151
     total cpu time spent up to now is        9.8 secs

     Computing kpt #:    20  of   151
     total cpu time spent up to now is       10.2 secs

     Computing kpt #:    21  of   151
     total cpu time spent up to now is       10.6 secs

     Computing kpt #:    22  of   151
     total cpu time spent up to now is       11.0 secs

     Computing kpt #:    23  of   151
     total cpu time spent up to now is       11.4 secs

     Computing kpt #:    24  of   151
     total cpu time spent up to now is       11.8 secs

     Computing kpt #:    25  of   151
     total cpu time spent up to now is       12.3 secs

     Computing kpt #:    26  of   151
     total cpu time spent up to now is       12.7 secs

     Computing kpt #:    27  of   151
     total cpu time spent up to now is       13.2 secs

     Computing kpt #:    28  of   151
     total cpu time spent up to now is       13.7 secs

     Computing kpt #:    29  of   151
     total cpu time spent up to now is       14.2 secs

     Computing kpt #:    30  of   151
     total cpu time spent up to now is       14.6 secs

     Computing kpt #:    31  of   151
     total cpu time spent up to now is       15.1 secs

     Computing kpt #:    32  of   151
     total cpu time spent up to now is       15.5 secs

     Computing kpt #:    33  of   151
     total cpu time spent up to now is       16.0 secs

     Computing kpt #:    34  of   151
     total cpu time spent up to now is       16.5 secs

     Computing kpt #:    35  of   151
     total cpu time spent up to now is       16.9 secs

     Computing kpt #:    36  of   151
     total cpu time spent up to now is       17.4 secs

     Computing kpt #:    37  of   151
     total cpu time spent up to now is       17.8 secs

     Computing kpt #:    38  of   151
     total cpu time spent up to now is       18.3 secs

     Computing kpt #:    39  of   151
     total cpu time spent up to now is       18.8 secs

     Computing kpt #:    40  of   151
     total cpu time spent up to now is       19.2 secs

     Computing kpt #:    41  of   151
     total cpu time spent up to now is       19.7 secs

     Computing kpt #:    42  of   151
     total cpu time spent up to now is       20.2 secs

     Computing kpt #:    43  of   151
     total cpu time spent up to now is       20.6 secs

     Computing kpt #:    44  of   151
     total cpu time spent up to now is       21.1 secs

     Computing kpt #:    45  of   151
     total cpu time spent up to now is       21.6 secs

     Computing kpt #:    46  of   151
     total cpu time spent up to now is       22.1 secs

     Computing kpt #:    47  of   151
     total cpu time spent up to now is       22.5 secs

     Computing kpt #:    48  of   151
     total cpu time spent up to now is       23.0 secs

     Computing kpt #:    49  of   151
     total cpu time spent up to now is       23.5 secs

     Computing kpt #:    50  of   151
     total cpu time spent up to now is       24.0 secs

     Computing kpt #:    51  of   151
     total cpu time spent up to now is       24.4 secs

     Computing kpt #:    52  of   151
     total cpu time spent up to now is       24.9 secs

     Computing kpt #:    53  of   151
     total cpu time spent up to now is       25.4 secs

     Computing kpt #:    54  of   151
     total cpu time spent up to now is       25.8 secs

     Computing kpt #:    55  of   151
     total cpu time spent up to now is       26.3 secs

     Computing kpt #:    56  of   151
     c_bands:  1 eigenvalues not converged
     total cpu time spent up to now is       27.1 secs

     Computing kpt #:    57  of   151
     total cpu time spent up to now is       27.7 secs

     Computing kpt #:    58  of   151
     total cpu time spent up to now is       28.2 secs

     Computing kpt #:    59  of   151
     total cpu time spent up to now is       28.7 secs

     Computing kpt #:    60  of   151
     total cpu time spent up to now is       29.2 secs

     Computing kpt #:    61  of   151
     total cpu time spent up to now is       29.7 secs

     Computing kpt #:    62  of   151
     total cpu time spent up to now is       30.2 secs

     Computing kpt #:    63  of   151
     total cpu time spent up to now is       30.7 secs

     Computing kpt #:    64  of   151
     total cpu time spent up to now is       31.2 secs

     Computing kpt #:    65  of   151
     total cpu time spent up to now is       31.6 secs

     Computing kpt #:    66  of   151
     total cpu time spent up to now is       32.2 secs

     Computing kpt #:    67  of   151
     total cpu time spent up to now is       32.7 secs

     Computing kpt #:    68  of   151
     total cpu time spent up to now is       33.1 secs

     Computing kpt #:    69  of   151
     total cpu time spent up to now is       33.6 secs

     Computing kpt #:    70  of   151
     total cpu time spent up to now is       34.0 secs

     Computing kpt #:    71  of   151
     total cpu time spent up to now is       34.4 secs

     Computing kpt #:    72  of   151
     total cpu time spent up to now is       34.8 secs

     Computing kpt #:    73  of   151
     total cpu time spent up to now is       35.2 secs

     Computing kpt #:    74  of   151
     total cpu time spent up to now is       35.7 secs

     Computing kpt #:    75  of   151
     total cpu time spent up to now is       36.1 secs

     Computing kpt #:    76  of   151
     total cpu time spent up to now is       36.5 secs

     Computing kpt #:    77  of   151
     total cpu time spent up to now is       36.9 secs

     Computing kpt #:    78  of   151
     total cpu time spent up to now is       37.3 secs

     Computing kpt #:    79  of   151
     total cpu time spent up to now is       37.7 secs

     Computing kpt #:    80  of   151
     total cpu time spent up to now is       38.1 secs

     Computing kpt #:    81  of   151
     total cpu time spent up to now is       38.5 secs

     Computing kpt #:    82  of   151
     total cpu time spent up to now is       38.9 secs

     Computing kpt #:    83  of   151
     total cpu time spent up to now is       39.3 secs

     Computing kpt #:    84  of   151
     total cpu time spent up to now is       39.7 secs

     Computing kpt #:    85  of   151
     total cpu time spent up to now is       40.1 secs

     Computing kpt #:    86  of   151
     total cpu time spent up to now is       40.6 secs

     Computing kpt #:    87  of   151
     total cpu time spent up to now is       41.0 secs

     Computing kpt #:    88  of   151
     total cpu time spent up to now is       41.4 secs

     Computing kpt #:    89  of   151
     total cpu time spent up to now is       41.8 secs

     Computing kpt #:    90  of   151
     total cpu time spent up to now is       42.2 secs

     Computing kpt #:    91  of   151
     total cpu time spent up to now is       42.6 secs

     Computing kpt #:    92  of   151
     total cpu time spent up to now is       43.0 secs

     Computing kpt #:    93  of   151
     total cpu time spent up to now is       43.4 secs

     Computing kpt #:    94  of   151
     total cpu time spent up to now is       43.8 secs

     Computing kpt #:    95  of   151
     total cpu time spent up to now is       44.2 secs

     Computing kpt #:    96  of   151
     total cpu time spent up to now is       44.7 secs

     Computing kpt #:    97  of   151
     total cpu time spent up to now is       45.1 secs

     Computing kpt #:    98  of   151
     total cpu time spent up to now is       45.5 secs

     Computing kpt #:    99  of   151
     total cpu time spent up to now is       45.9 secs

     Computing kpt #:   100  of   151
     total cpu time spent up to now is       46.3 secs

     Computing kpt #:   101  of   151
     total cpu time spent up to now is       46.7 secs

     Computing kpt #:   102  of   151
     total cpu time spent up to now is       47.1 secs

     Computing kpt #:   103  of   151
     total cpu time spent up to now is       47.6 secs

     Computing kpt #:   104  of   151
     total cpu time spent up to now is       48.0 secs

     Computing kpt #:   105  of   151
     total cpu time spent up to now is       48.5 secs

     Computing kpt #:   106  of   151
     total cpu time spent up to now is       48.9 secs

     Computing kpt #:   107  of   151
     total cpu time spent up to now is       49.3 secs

     Computing kpt #:   108  of   151
     total cpu time spent up to now is       49.8 secs

     Computing kpt #:   109  of   151
     total cpu time spent up to now is       50.2 secs

     Computing kpt #:   110  of   151
     total cpu time spent up to now is       50.7 secs

     Computing kpt #:   111  of   151
     total cpu time spent up to now is       51.1 secs

     Computing kpt #:   112  of   151
     total cpu time spent up to now is       51.6 secs

     Computing kpt #:   113  of   151
     total cpu time spent up to now is       52.0 secs

     Computing kpt #:   114  of   151
     total cpu time spent up to now is       52.4 secs

     Computing kpt #:   115  of   151
     total cpu time spent up to now is       52.9 secs

     Computing kpt #:   116  of   151
     total cpu time spent up to now is       53.3 secs

     Computing kpt #:   117  of   151
     total cpu time spent up to now is       53.8 secs

     Computing kpt #:   118  of   151
     total cpu time spent up to now is       54.3 secs

     Computing kpt #:   119  of   151
     total cpu time spent up to now is       54.8 secs

     Computing kpt #:   120  of   151
     total cpu time spent up to now is       55.3 secs

     Computing kpt #:   121  of   151
     total cpu time spent up to now is       55.7 secs

     Computing kpt #:   122  of   151
     total cpu time spent up to now is       56.2 secs

     Computing kpt #:   123  of   151
     total cpu time spent up to now is       56.7 secs

     Computing kpt #:   124  of   151
     total cpu time spent up to now is       57.2 secs

     Computing kpt #:   125  of   151
     total cpu time spent up to now is       57.7 secs

     Computing kpt #:   126  of   151
     total cpu time spent up to now is       58.1 secs

     Computing kpt #:   127  of   151
     total cpu time spent up to now is       58.6 secs

     Computing kpt #:   128  of   151
     total cpu time spent up to now is       59.1 secs

     Computing kpt #:   129  of   151
     total cpu time spent up to now is       59.6 secs

     Computing kpt #:   130  of   151
     total cpu time spent up to now is       60.1 secs

     Computing kpt #:   131  of   151
     total cpu time spent up to now is       60.6 secs

     Computing kpt #:   132  of   151
     total cpu time spent up to now is       61.1 secs

     Computing kpt #:   133  of   151
     total cpu time spent up to now is       61.5 secs

     Computing kpt #:   134  of   151
     total cpu time spent up to now is       62.0 secs

     Computing kpt #:   135  of   151
     total cpu time spent up to now is       62.4 secs

     Computing kpt #:   136  of   151
     total cpu time spent up to now is       62.9 secs

     Computing kpt #:   137  of   151
     total cpu time spent up to now is       63.5 secs

     Computing kpt #:   138  of   151
     total cpu time spent up to now is       64.0 secs

     Computing kpt #:   139  of   151
     total cpu time spent up to now is       64.4 secs

     Computing kpt #:   140  of   151
     total cpu time spent up to now is       64.9 secs

     Computing kpt #:   141  of   151
     total cpu time spent up to now is       65.3 secs

     Computing kpt #:   142  of   151
     total cpu time spent up to now is       65.8 secs

     Computing kpt #:   143  of   151
     total cpu time spent up to now is       66.2 secs

     Computing kpt #:   144  of   151
     total cpu time spent up to now is       66.7 secs

     Computing kpt #:   145  of   151
     total cpu time spent up to now is       67.1 secs

     Computing kpt #:   146  of   151
     total cpu time spent up to now is       67.6 secs

     Computing kpt #:   147  of   151
     total cpu time spent up to now is       68.1 secs

     Computing kpt #:   148  of   151
     total cpu time spent up to now is       68.5 secs

     Computing kpt #:   149  of   151
     total cpu time spent up to now is       69.1 secs

     Computing kpt #:   150  of   151
     total cpu time spent up to now is       69.7 secs

     Computing kpt #:   151  of   151
     total cpu time spent up to now is       70.1 secs

     ethr =  2.08E-10,  avg # of iterations = 49.9

     total cpu time spent up to now is       70.1 secs

     End of band structure calculation

          k = 0.0000 0.0000 0.0000 ( 19149 PWs)   bands (ev):

   -19.6273 -17.6811 -17.6810 -14.3805 -13.3513 -12.7019 -12.7019 -12.7018
   -12.7018 -10.6727 -10.6727  -7.8671  -7.8670  -7.7116  -6.5277  -6.5189
    -6.5188  -5.4156  -5.4156  -3.1287  -3.1282  -2.4397  -0.0702  -0.0701
    -0.0683  -0.0682   1.6219   2.9912   4.9447   5.6742

          k = 0.0000 0.0287 0.0000 ( 19167 PWs)   bands (ev):

   -19.6257 -17.6795 -17.6794 -14.4109 -13.3185 -12.8017 -12.8017 -12.6099
   -12.6098 -10.6617 -10.6617  -7.8781  -7.8780  -7.7098  -6.5261  -6.5103
    -6.5102  -5.4138  -5.4138  -3.1359  -3.1320  -2.4504  -0.2032  -0.2032
     0.0641   0.0642   1.6352   2.9934   4.9469   5.6764

          k = 0.0000 0.0574 0.0000 ( 19185 PWs)   bands (ev):

   -19.6208 -17.6747 -17.6747 -14.4925 -13.2295 -12.9088 -12.9088 -12.5260
   -12.5260 -10.6287 -10.6287  -7.9102  -7.9102  -7.7041  -6.5212  -6.4856
    -6.4856  -5.4085  -5.4085  -3.1563  -3.1428  -2.4823  -0.3377  -0.3377
     0.1967   0.1967   1.6746   3.0001   4.9534   5.6830

          k = 0.0000 0.0862 0.0000 ( 19199 PWs)   bands (ev):

   -19.6127 -17.6668 -17.6667 -14.6074 -13.1025 -13.0223 -13.0223 -12.4500
   -12.4500 -10.5749 -10.5749  -7.9611  -7.9611  -7.6943  -6.5130  -6.4474
    -6.4473  -5.3997  -5.3997  -3.1902  -3.1610  -2.5340  -0.4728  -0.4728
     0.3286   0.3286   1.7390   3.0111   4.9643   5.6940

          k = 0.0000 0.1149 0.0000 ( 19219 PWs)   bands (ev):

   -19.6014 -17.6557 -17.6556 -14.7411 -13.1411 -13.1411 -12.9518 -12.3814
   -12.3813 -10.5021 -10.5021  -8.0276  -8.0275  -7.6808  -6.5016  -6.3986
    -6.3986  -5.3873  -5.3873  -3.2372  -3.1859  -2.6037  -0.6082  -0.6081
     0.4595   0.4596   1.8265   3.0267   4.9795   5.7094

          k = 0.0000 0.1436 0.0000 ( 19213 PWs)   bands (ev):

   -19.5868 -17.6414 -17.6413 -14.8848 -13.2643 -13.2643 -12.7863 -12.3190
   -12.3190 -10.4123 -10.4123  -8.1063  -8.1063  -7.6632  -6.4869  -6.3428
    -6.3427  -5.3713  -5.3713  -3.2969  -3.2175  -2.6893  -0.7439  -0.7438
     0.5896   0.5896   1.9347   3.0466   4.9991   5.7291

          k = 0.0000 0.1723 0.0000 ( 19209 PWs)   bands (ev):

   -19.5689 -17.6239 -17.6239 -15.0337 -13.3908 -13.3907 -12.6108 -12.2617
   -12.2617 -10.3077 -10.3077  -8.1947  -8.1947  -7.6418  -6.4692  -6.2829
    -6.2829  -5.3517  -5.3517  -3.3694  -3.2554  -2.7885  -0.8796  -0.8796
     0.7188   0.7188   2.0614   3.0710   5.0231   5.7532

          k = 0.0000 0.2011 0.0000 ( 19203 PWs)   bands (ev):

   -19.5478 -17.6033 -17.6032 -15.1851 -13.5197 -13.5197 -12.4280 -12.2083
   -12.2083 -10.1905 -10.1905  -8.2904  -8.2904  -7.6165  -6.4481  -6.2214
    -6.2214  -5.3286  -5.3286  -3.4541  -3.2997  -2.8989  -1.0154  -1.0154
     0.8470   0.8471   2.2043   3.0998   5.0514   5.7817

          k = 0.0000 0.2298 0.0000 ( 19185 PWs)   bands (ev):

   -19.5234 -17.5795 -17.5794 -15.3372 -13.6503 -13.6503 -12.2398 -12.1577
   -12.1577 -10.0627 -10.0627  -8.3916  -8.3916  -7.5873  -6.4239  -6.1604
    -6.1604  -5.3020  -5.3020  -3.5502  -3.3495  -3.0183  -1.1511  -1.1510
     0.9744   0.9744   2.3613   3.1330   5.0841   5.8146

          k = 0.0000 0.2585 0.0000 ( 19195 PWs)   bands (ev):

   -19.4958 -17.5525 -17.5525 -15.4889 -13.7820 -13.7820 -12.1088 -12.1088
   -12.0472  -9.9262  -9.9262  -8.4970  -8.4970  -7.5543  -6.3964  -6.1018
    -6.1018  -5.2720  -5.2719  -3.6576  -3.4050  -3.1452  -1.2865  -1.2864
     1.1009   1.1010   2.5304   3.1706   5.1211   5.8519

          k = 0.0000 0.2872 0.0000 ( 19173 PWs)   bands (ev):

   -19.4650 -17.5224 -17.5224 -15.6397 -13.9141 -13.9141 -12.0607 -12.0607
   -11.8508  -9.7824  -9.7823  -8.6053  -8.6053  -7.5173  -6.3659  -6.0466
    -6.0466  -5.2383  -5.2383  -3.7750  -3.4654  -3.2776  -1.4214  -1.4214
     1.2266   1.2266   2.7098   3.2127   5.1625   5.8730

          k = 0.0000 0.3160 0.0000 ( 19175 PWs)   bands (ev):

   -19.4310 -17.4892 -17.4891 -15.7890 -14.0462 -14.0462 -12.0127 -12.0127
   -11.6513  -9.6328  -9.6328  -8.7159  -8.7159  -7.4766  -6.3321  -5.9961
    -5.9961  -5.2013  -5.2012  -3.9028  -3.5305  -3.4144  -1.5559  -1.5559
     1.3514   1.3514   2.8982   3.2593   5.2082   5.7894

          k = 0.0000 0.3447 0.0000 ( 19177 PWs)   bands (ev):

   -19.3937 -17.4528 -17.4527 -15.9365 -14.1779 -14.1779 -11.9641 -11.9641
   -11.4490  -9.4785  -9.4785  -8.8279  -8.8279  -7.4320  -6.2952  -5.9516
    -5.9515  -5.1607  -5.1607  -4.0400  -3.5997  -3.5542  -1.6897  -1.6896
     1.4754   1.4754   3.0943   3.3102   5.2582   5.7007

          k = 0.0000 0.3734 0.0000 ( 19163 PWs)   bands (ev):

   -19.3532 -17.4132 -17.4132 -16.0820 -14.3088 -14.3088 -11.9146 -11.9146
   -11.2442  -9.3206  -9.3206  -8.9407  -8.9407  -7.3835  -6.2553  -5.9135
    -5.9135  -5.1167  -5.1167  -4.1860  -3.6963  -3.6728  -1.8226  -1.8226
     1.5987   1.5987   3.2969   3.3656   5.3125   5.6077

          k = 0.0000 0.4021 0.0000 ( 19151 PWs)   bands (ev):

   -19.3094 -17.3706 -17.3705 -16.2252 -14.4387 -14.4387 -11.8638 -11.8638
   -11.0371  -9.1598  -9.1597  -9.0540  -9.0540  -7.3313  -6.2125  -5.8831
    -5.8831  -5.0693  -5.0693  -4.3401  -3.8395  -3.7492  -1.9546  -1.9546
     1.7213   1.7214   3.4254   3.5051   5.3711   5.5106

          k = 0.0000 0.4309 0.0000 ( 19147 PWs)   bands (ev):

   -19.2625 -17.3248 -17.3248 -16.3660 -14.5673 -14.5673 -11.8113 -11.8113
   -10.8280  -9.1674  -9.1674  -8.9969  -8.9969  -7.2752  -6.1666  -5.8607
    -5.8607  -5.0185  -5.0185  -4.5020  -3.9835  -3.8287  -2.0856  -2.0855
     1.8434   1.8434   3.4897   3.7182   5.4100   5.4101

          k = 0.0000 0.4596 0.0000 ( 19152 PWs)   bands (ev):

   -19.2123 -17.2759 -17.2759 -16.5044 -14.6944 -14.6944 -11.7569 -11.7569
   -10.6171  -9.2805  -9.2804  -8.8327  -8.8327  -7.2154  -6.1177  -5.8469
    -5.8468  -4.9644  -4.9643  -4.6708  -4.1275  -3.9108  -2.2153  -2.2152
     1.9649   1.9650   3.5583   3.9352   5.3062   5.3062

          k = 0.0000 0.4883 0.0000 ( 19158 PWs)   bands (ev):

   -19.1590 -17.2240 -17.2239 -16.6402 -14.8199 -14.8198 -11.7005 -11.7005
   -10.4046  -9.3930  -9.3930  -8.6677  -8.6677  -7.1518  -6.0660  -5.8423
    -5.8423  -4.9068  -4.9068  -4.8460  -4.2710  -3.9950  -2.3437  -2.3437
     2.0860   2.0861   3.6314   4.1558   5.1995   5.1995

          k = 0.0000 0.5170 0.0000 ( 19152 PWs)   bands (ev):

   -19.1024 -17.1689 -17.1689 -16.7734 -14.9435 -14.9434 -11.6420 -11.6420
   -10.1904  -9.5046  -9.5046  -8.5026  -8.5026  -7.0845  -6.0114  -5.8474
    -5.8473  -5.0272  -4.8459  -4.8459  -4.4137  -4.0809  -2.4707  -2.4706
     2.2068   2.2069   3.7090   4.3792   5.0904   5.0904

          k = 0.0000 0.5458 0.0000 ( 19164 PWs)   bands (ev):

   -19.0426 -17.1108 -17.1107 -16.9039 -15.0651 -15.0650 -11.5811 -11.5811
    -9.9750  -9.6153  -9.6153  -8.3378  -8.3378  -7.0133  -5.9542  -5.8621
    -5.8621  -5.2137  -4.7818  -4.7817  -4.5550  -4.1682  -2.5961  -2.5960
     2.3273   2.3273   3.7909   4.6048   4.9790   4.9790

          k = 0.0000 0.5745 0.0000 ( 19182 PWs)   bands (ev):

   -18.9797 -17.0496 -17.0496 -17.0315 -15.1846 -15.1846 -11.5179 -11.5179
    -9.7582  -9.7249  -9.7249  -8.1739  -8.1738  -6.9386  -5.8943  -5.8872
    -5.8872  -5.4051  -4.7143  -4.7143  -4.6947  -4.2564  -2.7197  -2.7197
     2.4475   2.4475   3.8773   4.8322   4.8660   4.8660

          k = 0.0000 0.6032 0.0000 ( 19172 PWs)   bands (ev):

   -18.9136 -17.1564 -16.9854 -16.9853 -15.3019 -15.3019 -11.4522 -11.4522
    -9.8330  -9.8330  -9.5403  -8.0114  -8.0114  -6.8603  -5.9219  -5.9219
    -5.8315  -5.6010  -4.8327  -4.6437  -4.6436  -4.3456  -2.8416  -2.8415
     2.5675   2.5675   3.9681   4.7513   4.7513   5.0608

          k = 0.0000 0.6319 0.0000 ( 19176 PWs)   bands (ev):

   -18.8443 -17.2784 -16.9181 -16.9181 -15.4170 -15.4169 -11.3842 -11.3841
    -9.9396  -9.9396  -9.3217  -7.8510  -7.8509  -6.7782  -5.9669  -5.9669
    -5.8007  -5.7661  -4.9686  -4.5698  -4.5698  -4.4352  -2.9615  -2.9615
     2.6875   2.6875   4.0633   4.6353   4.6353   5.2900

          k = 0.0000 0.6606 0.0000 ( 19186 PWs)   bands (ev):

   -18.7718 -17.3976 -16.8479 -16.8478 -15.5296 -15.5296 -11.3136 -11.3136
   -10.0445 -10.0445  -9.1022  -7.6930  -7.6930  -6.6925  -6.0221  -6.0220
    -6.0040  -5.6983  -5.1023  -4.5250  -4.4928  -4.4928  -3.0794  -3.0793
     2.8074   2.8074   4.1629   4.5183   4.5183   5.5193

          k = 0.0000 0.6894 0.0000 ( 19186 PWs)   bands (ev):

   -18.6962 -17.5139 -16.7746 -16.7746 -15.6398 -15.6398 -11.2405 -11.2405
   -10.1477 -10.1477  -8.8822  -7.5379  -7.5379  -6.6033  -6.2105  -6.0870
    -6.0870  -5.6281  -5.2335  -4.6147  -4.4127  -4.4127  -3.1953  -3.1953
     2.9272   2.9273   4.2669   4.4003   4.4004   5.7480

          k = 0.0000 0.7181 0.0000 ( 19186 PWs)   bands (ev):

   -18.6175 -17.6271 -16.6984 -16.6983 -15.7475 -15.7475 -11.1650 -11.1650
   -10.2490 -10.2490  -8.6618  -7.3865  -7.3865  -6.5105  -6.4200  -6.1616
    -6.1615  -5.5556  -5.3621  -4.7041  -4.3295  -4.3295  -3.3089  -3.3089
     3.0472   3.0473   4.2817   4.2817   4.3753   5.7452

          k = 0.0000 0.7468 0.0000 ( 19182 PWs)   bands (ev):

   -18.5356 -17.7375 -16.6192 -16.6192 -15.8527 -15.8526 -11.0870 -11.0869
   -10.3483 -10.3483  -8.4412  -7.2390  -7.2390  -6.6317  -6.4142  -6.2454
    -6.2454  -5.4879  -5.4808  -4.7929  -4.2433  -4.2433  -3.4202  -3.4201
     3.1672   3.1672   4.1625   4.1626   4.4881   5.5920

          k = 0.0000 0.7755 0.0000 ( 19178 PWs)   bands (ev):

   -18.4506 -17.8448 -16.5371 -16.5371 -15.9552 -15.9551 -11.0065 -11.0064
   -10.4456 -10.4456  -8.2205  -7.0963  -7.0962  -6.8456  -6.3382  -6.3382
    -6.3144  -5.6109  -5.4040  -4.8807  -4.1542  -4.1541  -3.5290  -3.5290
     3.2873   3.2873   4.0429   4.0430   4.6053   5.4431

          k = 0.0000 0.8043 0.0000 ( 19178 PWs)   bands (ev):

   -18.3625 -17.9492 -16.4521 -16.4521 -16.0550 -16.0549 -10.9235 -10.9235
   -10.5407 -10.5407  -8.0000  -7.0612  -6.9586  -6.9585  -6.4394  -6.4394
    -6.2113  -5.7311  -5.3254  -4.9677  -4.0622  -4.0621  -3.6353  -3.6353
     3.4074   3.4074   3.9230   3.9230   4.7269   5.2984

          k = 0.0000 0.8330 0.0000 ( 19172 PWs)   bands (ev):

   -18.2712 -18.0505 -16.3642 -16.3642 -16.1521 -16.1520 -10.8382 -10.8382
   -10.6336 -10.6336  -7.7800  -7.2783  -6.8265  -6.8265  -6.5485  -6.5485
    -6.1047  -5.8482  -5.2447  -5.0535  -3.9673  -3.9672  -3.7392  -3.7392
     3.5275   3.5275   3.8030   3.8030   4.8528   5.1581

          k = 0.0000 0.8617 0.0000 ( 19176 PWs)   bands (ev):

   -18.1769 -18.1487 -16.2735 -16.2735 -16.2464 -16.2463 -10.7505 -10.7505
   -10.7243 -10.7243  -7.5606  -7.4965  -6.7009  -6.7008  -6.6653  -6.6653
    -5.9949  -5.9621  -5.1624  -5.1379  -3.8696  -3.8695  -3.8404  -3.8404
     3.6476   3.6477   3.6828   3.6829   4.9831   5.0222

          k = 0.0167 0.8617 0.0000 ( 19180 PWs)   bands (ev):

   -18.1764 -18.1482 -16.3352 -16.3080 -16.2109 -16.1838 -10.8590 -10.8328
   -10.6417 -10.6155  -7.5606  -7.4965  -6.7092  -6.6924  -6.6728  -6.6578
    -5.9943  -5.9615  -5.1646  -5.1402  -3.9328  -3.9034  -3.8060  -3.7771
     3.5475   3.5821   3.7481   3.7839   4.9839   5.0229

          k = 0.0333 0.8617 0.0000 ( 19176 PWs)   bands (ev):

   -18.1748 -18.1466 -16.3959 -16.3687 -16.1474 -16.1204 -10.9670 -10.9411
   -10.5327 -10.5064  -7.5607  -7.4967  -6.7175  -6.6840  -6.6801  -6.6503
    -5.9924  -5.9596  -5.1714  -5.1469  -3.9956  -3.9660  -3.7422  -3.7136
     3.4478   3.4818   3.8489   3.8852   4.9861   5.0252

          k = 0.0500 0.8617 0.0000 ( 19172 PWs)   bands (ev):

   -18.1721 -18.1439 -16.4558 -16.4285 -16.0830 -16.0561 -11.0748 -11.0488
   -10.4236 -10.3973  -7.5609  -7.4969  -6.7256  -6.6874  -6.6755  -6.6429
    -5.9892  -5.9564  -5.1828  -5.1583  -4.0579  -4.0281  -3.6782  -3.6499
     3.3487   3.3821   3.9497   3.9866   4.9899   5.0289

          k = 0.0667 0.8617 0.0000 ( 19167 PWs)   bands (ev):

   -18.1684 -18.1401 -16.5147 -16.4873 -16.0178 -15.9909 -11.1820 -11.1561
   -10.3144 -10.2879  -7.5612  -7.4972  -6.7336  -6.6945  -6.6671  -6.6354
    -5.9848  -5.9520  -5.1987  -5.1743  -4.1198  -4.0898  -3.6141  -3.5862
     3.2504   3.2833   4.0502   4.0877   4.9951   5.0342

          k = 0.0833 0.8617 0.0000 ( 19165 PWs)   bands (ev):

   -18.1635 -18.1353 -16.5726 -16.5452 -15.9517 -15.9249 -11.2888 -11.2629
   -10.2051 -10.1785  -7.5615  -7.4977  -6.7414  -6.7015  -6.6588  -6.6281
    -5.9791  -5.9463  -5.2192  -5.1946  -4.1810  -4.1508  -3.5500  -3.5224
     3.1529   3.1851   4.1507   4.1887   5.0019   5.0409

          k = 0.1000 0.8617 0.0000 ( 19164 PWs)   bands (ev):

   -18.1576 -18.1294 -16.6295 -16.6021 -15.8848 -15.8581 -11.3950 -11.3692
   -10.0958 -10.0691  -7.5621  -7.4984  -6.7489  -6.7083  -6.6504  -6.6209
    -5.9721  -5.9393  -5.2438  -5.2191  -4.2416  -4.2112  -3.4860  -3.4588
     3.0564   3.0880   4.2509   4.2894   5.0101   5.0492

          k = 0.1167 0.8617 0.0000 ( 19166 PWs)   bands (ev):

   -18.1507 -18.1224 -16.6855 -16.6581 -15.8171 -15.7904 -11.5005 -11.4748
    -9.9867  -9.9599  -7.5627  -7.4993  -6.7559  -6.7147  -6.6424  -6.6138
    -5.9639  -5.9311  -5.2727  -5.2479  -4.3016  -4.2711  -3.4222  -3.3954
     2.9611   2.9921   4.3507   4.3898   5.0199   5.0589

          k = 0.1333 0.8617 0.0000 ( 19170 PWs)   bands (ev):

   -18.1426 -18.1144 -16.7406 -16.7131 -15.7486 -15.7220 -11.6054 -11.5798
    -9.8778  -9.8508  -7.5637  -7.5004  -6.7626  -6.7206  -6.6344  -6.6070
    -5.9544  -5.9216  -5.3056  -5.2808  -4.3609  -4.3303  -3.3587  -3.3323
     2.8673   2.8975   4.4499   4.4896   5.0311   5.0701

          k = 0.1500 0.8617 0.0000 ( 19164 PWs)   bands (ev):

   -18.1335 -18.1053 -16.7946 -16.7671 -15.6794 -15.6529 -11.7095 -11.6840
    -9.7692  -9.7421  -7.5648  -7.5018  -6.7689  -6.7262  -6.6266  -6.6003
    -5.9437  -5.9109  -5.3425  -5.3176  -4.4195  -4.3887  -3.2956  -3.2698
     2.7750   2.8045   4.5485   4.5887   5.0438   5.0829

          k = 0.1667 0.8617 0.0000 ( 19168 PWs)   bands (ev):

   -18.1233 -18.0951 -16.8477 -16.8202 -15.6094 -15.5831 -11.8129 -11.7874
    -9.6610  -9.6337  -7.5663  -7.5035  -6.7746  -6.7313  -6.6190  -6.5938
    -5.9317  -5.8989  -5.3833  -5.3582  -4.4773  -4.4463  -3.2332  -3.2079
     2.6844   2.7132   4.6463   4.6871   5.0580   5.0971

          k = 0.1833 0.8617 0.0000 ( 19158 PWs)   bands (ev):

   -18.1120 -18.0838 -16.8998 -16.8722 -15.5388 -15.5126 -11.9153 -11.8900
    -9.5533  -9.5258  -7.5681  -7.5056  -6.7797  -6.7358  -6.6115  -6.5874
    -5.9184  -5.8857  -5.4275  -5.4023  -4.5342  -4.5032  -3.1715  -3.1468
     2.5958   2.6238   4.7432   4.7846   5.0738   5.1128

          k = 0.2000 0.8617 0.0000 ( 19168 PWs)   bands (ev):

   -18.0997 -18.0715 -16.9508 -16.9233 -15.4676 -15.4415 -12.0169 -11.9916
    -9.4463  -9.4185  -7.5704  -7.5082  -6.7841  -6.7397  -6.6043  -6.5814
    -5.9039  -5.8712  -5.4752  -5.4498  -4.5904  -4.5592  -3.1107  -3.0866
     2.5093   2.5364   4.8392   4.8813   5.0910   5.1300

          k = 0.2167 0.8617 0.0000 ( 19176 PWs)   bands (ev):

   -18.0863 -18.0581 -17.0009 -16.9733 -15.3959 -15.3700 -12.1174 -12.0923
    -9.3401  -9.3121  -7.5732  -7.5113  -6.7876  -6.7427  -6.5974  -6.5756
    -5.8882  -5.8555  -5.5261  -5.5006  -4.6456  -4.6144  -3.0510  -3.0277
     2.4252   2.4513   4.9342   4.9768   5.1097   5.1487

          k = 0.2333 0.8617 0.0000 ( 19172 PWs)   bands (ev):

   -18.0718 -18.0436 -17.0500 -17.0223 -15.3237 -15.2979 -12.2168 -12.1918
    -9.2348  -9.2065  -7.5765  -7.5151  -6.7903  -6.7450  -6.5906  -6.5701
    -5.8712  -5.8385  -5.5798  -5.5539  -4.7000  -4.6687  -2.9926  -2.9700
     2.3437   2.3689   5.0279   5.0711   5.1298   5.1689

          k = 0.2500 0.8617 0.0000 ( 19160 PWs)   bands (ev):

   -18.0563 -18.0281 -17.0980 -17.0703 -15.2511 -15.2256 -12.3149 -12.2901
    -9.1306  -9.1019  -7.5807  -7.5197  -6.7918  -6.7462  -6.5842  -6.5649
    -5.8529  -5.8202  -5.6361  -5.6100  -4.7535  -4.7220  -2.9357  -2.9139
     2.2650   2.2892   5.1204   5.1515   5.1642   5.1905

          k = 0.2667 0.8617 0.0000 ( 19152 PWs)   bands (ev):

   -18.0397 -18.0115 -17.1451 -17.1174 -15.1782 -15.1529 -12.4117 -12.3871
    -9.0277  -8.9986  -7.5856  -7.5252  -6.7921  -6.7462  -6.5781  -6.5600
    -5.8334  -5.8007  -5.6948  -5.6683  -4.8060  -4.7745  -2.8805  -2.8596
     2.1895   2.2126   5.1746   5.2115   5.2137   5.2559

          k = 0.2833 0.8617 0.0000 ( 19164 PWs)   bands (ev):

   -18.0220 -17.9938 -17.1911 -17.1634 -15.1052 -15.0803 -12.5070 -12.4826
    -8.9263  -8.8968  -7.5917  -7.5318  -6.7911  -6.7451  -6.5723  -6.5555
    -5.8127  -5.7800  -5.7556  -5.7288  -4.8576  -4.8260  -2.8272  -2.8073
     2.1174   2.1393   5.1993   5.2383   5.3009   5.3460

          k = 0.3000 0.8617 0.0000 ( 19146 PWs)   bands (ev):

   -18.0032 -17.9751 -17.2361 -17.2083 -15.0323 -15.0077 -12.6004 -12.5764
    -8.8267  -8.7966  -7.5989  -7.5396  -6.7885  -6.7423  -6.5667  -6.5511
    -5.8179  -5.7907  -5.7907  -5.7580  -4.9082  -4.8765  -2.7762  -2.7574
     2.0489   2.0697   5.2254   5.2644   5.3889   5.4347

          k = 0.3167 0.8617 0.0000 ( 19168 PWs)   bands (ev):

   -17.9834 -17.9553 -17.2801 -17.2523 -14.9597 -14.9355 -12.6920 -12.6683
    -8.7291  -8.6985  -7.6075  -7.5490  -6.7842  -6.7379  -6.5616  -6.5472
    -5.8818  -5.8541  -5.7675  -5.7349  -4.9577  -4.9260  -2.7278  -2.7100
     1.9844   2.0039   5.2530   5.2920   5.4753   5.5217

          k = 0.3333 0.8617 0.0000 ( 19174 PWs)   bands (ev):

   -17.9626 -17.9344 -17.3230 -17.2952 -14.8876 -14.8639 -12.7812 -12.7581
    -8.6339  -8.6026  -7.6178  -7.5601  -6.7779  -6.7317  -6.5567  -6.5437
    -5.9465  -5.9183  -5.7431  -5.7105  -5.0063  -4.9744  -2.6820  -2.6655
     1.9243   1.9423   5.2821   5.3211   5.5598   5.6070

          k = 0.3500 0.8617 0.0000 ( 19160 PWs)   bands (ev):

   -17.9406 -17.9125 -17.3649 -17.3371 -14.8164 -14.7934 -12.8677 -12.8451
    -8.5413  -8.5092  -7.6301  -7.5732  -6.7691  -6.7232  -6.5523  -6.5405
    -6.0117  -5.9829  -5.7174  -5.6848  -5.0538  -5.0219  -2.6394  -2.6241
     1.8687   1.8853   5.3127   5.3517   5.6426   5.6904

          k = 0.3667 0.8617 0.0000 ( 19162 PWs)   bands (ev):

   -17.9176 -17.8895 -17.4058 -17.3780 -14.7467 -14.7245 -12.9509 -12.9291
    -8.4519  -8.4189  -7.6446  -7.5887  -6.7578  -6.7122  -6.5483  -6.5378
    -6.0770  -6.0475  -5.6906  -5.6580  -5.1002  -5.0682  -2.6000  -2.5862
     1.8180   1.8330   5.3447   5.3837   5.7235   5.7720

          k = 0.3833 0.8617 0.0000 ( 19168 PWs)   bands (ev):

   -17.8935 -17.8654 -17.4457 -17.4178 -14.6791 -14.6580 -13.0301 -13.0093
    -8.3657  -8.3317  -7.6618  -7.6070  -6.7436  -6.6984  -6.5446  -6.5354
    -6.1419  -6.1116  -5.6625  -5.6299  -5.1456  -5.1136  -2.5643  -2.5520
     1.7725   1.7858   5.3782   5.4173   5.8024   5.8516

          k = 0.4000 0.8617 0.0000 ( 19166 PWs)   bands (ev):

   -17.8684 -17.8403 -17.4845 -17.4566 -14.6145 -14.5947 -13.1044 -13.0849
    -8.2834  -8.2483  -7.6819  -7.6284  -6.7262  -6.6816  -6.5413  -6.5333
    -6.2057  -6.1746  -5.6332  -5.6006  -5.1899  -5.1578  -2.5326  -2.5218
     1.7324   1.7441   5.4132   5.4523   5.8792   5.9291

          k = 0.4167 0.8617 0.0000 ( 19167 PWs)   bands (ev):

   -17.8422 -17.8141 -17.5222 -17.4943 -14.5540 -14.5360 -13.1724 -13.1547
    -8.2052  -8.1689  -7.7055  -7.6533  -6.7053  -6.6614  -6.5383  -6.5317
    -6.2681  -6.2359  -5.6027  -5.5702  -5.2331  -5.2010  -2.5050  -2.4959
     1.6982   1.7081   5.4497   5.4887   5.8957   5.9347

          k = 0.4333 0.8617 0.0000 ( 19152 PWs)   bands (ev):

   -17.8149 -17.7869 -17.5589 -17.5310 -14.4992 -14.4835 -13.2325 -13.2171
    -8.1317  -8.0939  -7.7330  -7.6822  -6.6804  -6.6373  -6.5359  -6.5306
    -6.3283  -6.2951  -5.5708  -5.5385  -5.2752  -5.2430  -2.4819  -2.4745
     1.6700   1.6780   5.4877   5.5267   5.8445   5.8835

          k = 0.4500 0.8617 0.0000 ( 19154 PWs)   bands (ev):

   -17.7866 -17.7586 -17.5946 -17.5667 -14.4521 -14.4394 -13.2826 -13.2701
    -8.0631  -8.0238  -7.7647  -7.7154  -6.6513  -6.6094  -6.5338  -6.5298
    -6.3859  -6.3515  -5.5379  -5.5055  -5.3161  -5.2839  -2.4635  -2.4579
     1.6482   1.6541   5.5271   5.5661   5.7947   5.8337

          k = 0.4667 0.8617 0.0000 ( 19146 PWs)   bands (ev):

   -17.7573 -17.7292 -17.6292 -17.6013 -14.4151 -14.4060 -13.3203 -13.3113
    -7.9997  -7.9589  -7.8011  -7.7535  -6.6179  -6.5771  -6.5322  -6.5295
    -6.4402  -6.4045  -5.5039  -5.4715  -5.3559  -5.3237  -2.4499  -2.4462
     1.6327   1.6367   5.5680   5.6071   5.7464   5.7854

          k = 0.4833 0.8617 0.0000 ( 19154 PWs)   bands (ev):

   -17.7268 -17.6988 -17.6628 -17.6348 -14.3905 -14.3857 -13.3431 -13.3384
    -7.9418  -7.8993  -7.8427  -7.7967  -6.5800  -6.5404  -6.5309  -6.5295
    -6.4909  -6.4539  -5.4686  -5.4363  -5.3947  -5.3624  -2.4414  -2.4394
     1.6237   1.6258   5.6104   5.6494   5.6996   5.7386

          k = 0.5000 0.8617 0.0000 ( 19152 PWs)   bands (ev):

   -17.6957 -17.6950 -17.6677 -17.6670 -14.3808 -14.3801 -13.3495 -13.3491
    -7.8897  -7.8893  -7.8454  -7.8451  -6.5377  -6.5376  -6.5303  -6.5297
    -6.4994  -6.4993  -5.4325  -5.4319  -5.4002  -5.3996  -2.4381  -2.4376
     1.6212   1.6216   5.6542   5.6544   5.6932   5.6934

          k = 0.5000 0.8330 0.0000 ( 19152 PWs)   bands (ev):

   -17.7892 -17.7885 -17.5703 -17.5696 -14.3894 -14.3887 -13.3374 -13.3370
    -8.0437  -8.0433  -7.6974  -7.6972  -6.6656  -6.6655  -6.5369  -6.5363
    -6.3663  -6.3662  -5.5408  -5.5402  -5.2878  -5.2872  -2.4397  -2.4391
     1.6250   1.6255   5.5239   5.5241   5.8291   5.8293

          k = 0.5000 0.8043 0.0000 ( 19168 PWs)   bands (ev):

   -17.8798 -17.8791 -17.4698 -17.4691 -14.4106 -14.4099 -13.3074 -13.3070
    -8.2025  -8.2021  -7.5538  -7.5536  -6.7890  -6.7888  -6.5536  -6.5530
    -6.2301  -6.2301  -5.6458  -5.6452  -5.1724  -5.1718  -2.4436  -2.4431
     1.6348   1.6353   5.3980   5.3981   5.9161   5.9167

          k = 0.5000 0.7755 0.0000 ( 19170 PWs)   bands (ev):

   -17.9672 -17.9665 -17.3664 -17.3657 -14.4422 -14.4415 -13.2615 -13.2612
    -8.3659  -8.3655  -7.4143  -7.4141  -6.9073  -6.9070  -6.5802  -6.5797
    -6.0916  -6.0916  -5.7475  -5.7469  -5.0539  -5.0533  -2.4499  -2.4494
     1.6504   1.6508   5.2764   5.2766   5.7250   5.7256

          k = 0.5000 0.7468 0.0000 ( 19182 PWs)   bands (ev):

   -18.0516 -18.0509 -17.2600 -17.2593 -14.4818 -14.4812 -13.2023 -13.2019
    -8.5339  -8.5334  -7.2784  -7.2782  -7.0203  -7.0200  -6.6169  -6.6163
    -5.9519  -5.9518  -5.8459  -5.8453  -4.9324  -4.9318  -2.4584  -2.4579
     1.6716   1.6720   5.1592   5.1594   5.5322   5.5328

          k = 0.5000 0.7181 0.0000 ( 19180 PWs)   bands (ev):

   -18.1329 -18.1322 -17.1507 -17.1500 -14.5272 -14.5266 -13.1320 -13.1317
    -8.7061  -8.7056  -7.1457  -7.1456  -7.1279  -7.1275  -6.6631  -6.6625
    -5.9408  -5.9402  -5.8118  -5.8117  -4.8081  -4.8075  -2.4689  -2.4684
     1.6982   1.6987   5.0464   5.0466   5.3379   5.3384

          k = 0.5000 0.6894 0.0000 ( 19188 PWs)   bands (ev):

   -18.2111 -18.2104 -17.0385 -17.0378 -14.5763 -14.5757 -13.0528 -13.0525
    -8.8823  -8.8818  -7.2299  -7.2296  -7.0161  -7.0161  -6.7184  -6.7179
    -6.0322  -6.0316  -5.6724  -5.6723  -4.6810  -4.6804  -2.4815  -2.4810
     1.7299   1.7304   4.9380   4.9382   5.1423   5.1429

          k = 0.5000 0.6606 0.0000 ( 19178 PWs)   bands (ev):

   -18.2862 -18.2855 -16.9235 -16.9228 -14.6275 -14.6270 -12.9661 -12.9658
    -9.0621  -9.0615  -7.3267  -7.3264  -6.8890  -6.8889  -6.7824  -6.7819
    -6.1202  -6.1196  -5.5344  -5.5343  -4.5513  -4.5507  -2.4957  -2.4952
     1.7665   1.7669   4.8340   4.8342   4.9457   4.9462

          k = 0.5000 0.6319 0.0000 ( 19178 PWs)   bands (ev):

   -18.3581 -18.3574 -16.8056 -16.8048 -14.6798 -14.6792 -12.8734 -12.8731
    -9.2449  -9.2443  -7.4182  -7.4178  -6.8550  -6.8545  -6.7642  -6.7642
    -6.2046  -6.2040  -5.3992  -5.3990  -4.4191  -4.4185  -2.5114  -2.5108
     1.8074   1.8079   4.7344   4.7345   4.7483   4.7489

          k = 0.5000 0.6032 0.0000 ( 19154 PWs)   bands (ev):

   -18.4270 -18.4263 -16.6848 -16.6841 -14.7320 -14.7315 -12.7753 -12.7750
    -9.4301  -9.4295  -7.5045  -7.5041  -6.9352  -6.9346  -6.6415  -6.6414
    -6.2855  -6.2849  -5.2677  -5.2675  -4.2845  -4.2839  -2.5283  -2.5277
     1.8524   1.8528   4.5505   4.5511   4.6392   4.6393

          k = 0.5000 0.5745 0.0000 ( 19134 PWs)   bands (ev):

   -18.4927 -18.4920 -16.5613 -16.5606 -14.7837 -14.7832 -12.6729 -12.6726
    -9.6176  -9.6170  -7.5859  -7.5855  -7.0225  -7.0220  -6.5206  -6.5205
    -6.3628  -6.3622  -5.1405  -5.1402  -4.1478  -4.1472  -2.5462  -2.5457
     1.9008   1.9013   4.3525   4.3531   4.5484   4.5485

          k = 0.5000 0.5458 0.0000 ( 19154 PWs)   bands (ev):

   -18.5552 -18.5545 -16.4352 -16.4345 -14.8343 -14.8338 -12.5666 -12.5663
    -9.8069  -9.8062  -7.6626  -7.6621  -7.1170  -7.1164  -6.4364  -6.4358
    -6.4015  -6.4014  -5.0187  -5.0184  -4.0091  -4.0085  -2.5649  -2.5644
     1.9523   1.9528   4.1545   4.1551   4.4620   4.4622

          k = 0.5000 0.5170 0.0000 ( 19162 PWs)   bands (ev):

   -18.6146 -18.6139 -16.3063 -16.3056 -14.8834 -14.8830 -12.4569 -12.4566
    -9.9974  -9.9967  -7.7346  -7.7342  -7.2172  -7.2167  -6.5065  -6.5059
    -6.2841  -6.2840  -4.9030  -4.9027  -3.8686  -3.8680  -2.5842  -2.5837
     2.0063   2.0068   3.9570   3.9576   4.3800   4.3802

          k = 0.5000 0.4883 0.0000 ( 19144 PWs)   bands (ev):

   -18.6709 -18.6702 -16.1748 -16.1741 -14.9307 -14.9303 -12.3443 -12.3440
   -10.1888 -10.1881  -7.8022  -7.8017  -7.3229  -7.3225  -6.5729  -6.5723
    -6.1683  -6.1681  -4.7940  -4.7937  -3.7266  -3.7260  -2.6037  -2.6032
     2.0623   2.0628   3.7603   3.7609   4.3025   4.3027

          k = 0.5000 0.4596 0.0000 ( 19118 PWs)   bands (ev):

   -18.7239 -18.7232 -16.0408 -16.0401 -14.9760 -14.9756 -12.2291 -12.2288
   -10.3806 -10.3800  -7.8653  -7.8648  -7.4336  -7.4332  -6.6355  -6.6349
    -6.0542  -6.0540  -4.6923  -4.6920  -3.5835  -3.5829  -2.6234  -2.6229
     2.1198   2.1203   3.5649   3.5654   4.2294   4.2296

          k = 0.5000 0.4309 0.0000 ( 19138 PWs)   bands (ev):

   -18.7738 -18.7731 -15.9044 -15.9036 -15.0191 -15.0187 -12.1118 -12.1115
   -10.5727 -10.5720  -7.9242  -7.9237  -7.5488  -7.5484  -6.6945  -6.6939
    -5.9421  -5.9419  -4.5990  -4.5987  -3.4395  -3.4389  -2.6429  -2.6424
     2.1781   2.1785   3.3711   3.3717   4.1607   4.1609

          k = 0.5000 0.4021 0.0000 ( 19152 PWs)   bands (ev):

   -18.8205 -18.8198 -15.7655 -15.7648 -15.0599 -15.0595 -11.9926 -11.9923
   -10.7645 -10.7638  -7.9790  -7.9785  -7.6675  -7.6670  -6.7498  -6.7492
    -5.8320  -5.8318  -4.5141  -4.5137  -3.2952  -3.2946  -2.6621  -2.6616
     2.2366   2.2371   3.1797   3.1803   4.0965   4.0967

          k = 0.5000 0.3734 0.0000 ( 19152 PWs)   bands (ev):

   -18.8640 -18.8633 -15.6244 -15.6237 -15.0981 -15.0977 -11.8721 -11.8718
   -10.9558 -10.9551  -8.0296  -8.0291  -7.7891  -7.7887  -6.8013  -6.8007
    -5.7244  -5.7241  -4.4381  -4.4377  -3.1510  -3.1503  -2.6808  -2.6803
     2.2947   2.2952   2.9912   2.9917   4.0367   4.0368

          k = 0.5000 0.3447 0.0000 ( 19132 PWs)   bands (ev):

   -18.9042 -18.9035 -15.4813 -15.4806 -15.1338 -15.1334 -11.7505 -11.7502
   -11.1461 -11.1454  -8.0763  -8.0758  -7.9129  -7.9125  -6.8490  -6.8484
    -5.6192  -5.6190  -4.3709  -4.3705  -3.0075  -3.0069  -2.6988  -2.6983
     2.3519   2.3524   2.8062   2.8068   3.9813   3.9815

          k = 0.5000 0.3160 0.0000 ( 19152 PWs)   bands (ev):

   -18.9413 -18.9406 -15.3362 -15.3355 -15.1669 -15.1665 -11.6284 -11.6281
   -11.3352 -11.3345  -8.1191  -8.1186  -8.0383  -8.0378  -6.8930  -6.8924
    -5.5170  -5.5168  -4.3130  -4.3126  -2.8656  -2.8650  -2.7159  -2.7154
     2.4074   2.4079   2.6256   2.6262   3.9304   3.9305

          k = 0.5000 0.2872 0.0000 ( 19130 PWs)   bands (ev):

   -18.9752 -18.9745 -15.1973 -15.1969 -15.1895 -15.1888 -11.5226 -11.5219
   -11.5064 -11.5060  -8.1641  -8.1637  -8.1581  -8.1576  -6.9331  -6.9325
    -5.4183  -5.4180  -4.2642  -4.2638  -2.7321  -2.7316  -2.7260  -2.7254
     2.4506   2.4512   2.4608   2.4613   3.8839   3.8840

          k = 0.5000 0.2585 0.0000 ( 19126 PWs)   bands (ev):

   -19.0058 -19.0051 -15.2249 -15.2245 -15.0415 -15.0408 -11.7078 -11.7071
   -11.3852 -11.3848  -8.2896  -8.2892  -8.1932  -8.1927  -6.9695  -6.9689
    -5.3235  -5.3233  -4.2248  -4.2244  -2.7470  -2.7465  -2.5899  -2.5893
     2.2821   2.2827   2.5114   2.5119   3.8418   3.8420

          k = 0.5000 0.2298 0.0000 ( 19122 PWs)   bands (ev):

   -19.0333 -19.0326 -15.2497 -15.2493 -14.8926 -14.8919 -11.8901 -11.8894
   -11.2657 -11.2654  -8.4136  -8.4132  -8.2245  -8.2240  -7.0021  -7.0015
    -5.2335  -5.2331  -4.1940  -4.1936  -2.7607  -2.7602  -2.4587  -2.4581
     2.1217   2.1223   2.5585   2.5590   3.8041   3.8043

          k = 0.5000 0.2011 0.0000 ( 19110 PWs)   bands (ev):

   -19.0575 -19.0568 -15.2716 -15.2712 -14.7437 -14.7430 -12.0690 -12.0683
   -11.1492 -11.1489  -8.5344  -8.5340  -8.2521  -8.2516  -7.0309  -7.0303
    -5.1488  -5.1485  -4.1714  -4.1710  -2.7730  -2.7725  -2.3339  -2.3333
     1.9711   1.9717   2.6018   2.6023   3.7709   3.7711

          k = 0.5000 0.1723 0.0000 ( 19114 PWs)   bands (ev):

   -19.0785 -19.0778 -15.2907 -15.2903 -14.5956 -14.5949 -12.2431 -12.2424
   -11.0373 -11.0370  -8.6505  -8.6502  -8.2760  -8.2755  -7.0558  -7.0552
    -5.0707  -5.0703  -4.1563  -4.1558  -2.7840  -2.7835  -2.2177  -2.2170
     1.8322   1.8327   2.6405   2.6410   3.7422   3.7424

          k = 0.5000 0.1436 0.0000 ( 19122 PWs)   bands (ev):

   -19.0963 -19.0956 -15.3069 -15.3065 -14.4501 -14.4494 -12.4108 -12.4101
   -10.9322 -10.9318  -8.7596  -8.7592  -8.2962  -8.2957  -7.0770  -7.0764
    -5.0001  -4.9998  -4.1478  -4.1473  -2.7934  -2.7929  -2.1122  -2.1116
     1.7075   1.7080   2.6742   2.6747   3.7178   3.7180

          k = 0.5000 0.1149 0.0000 ( 19106 PWs)   bands (ev):

   -19.1108 -19.1101 -15.3201 -15.3197 -14.3099 -14.3092 -12.5692 -12.5685
   -10.8368 -10.8364  -8.8584  -8.8580  -8.3126  -8.3121  -7.0942  -7.0936
    -4.9387  -4.9382  -4.1444  -4.1439  -2.8010  -2.8005  -2.0200  -2.0194
     1.5995   1.6001   2.7024   2.7029   3.6979   3.6981

          k = 0.5000 0.0862 0.0000 ( 19110 PWs)   bands (ev):

   -19.1221 -19.1214 -15.3305 -15.3301 -14.1798 -14.1791 -12.7135 -12.7128
   -10.7548 -10.7544  -8.9431  -8.9428  -8.3254  -8.3249  -7.1077  -7.1071
    -4.8879  -4.8874  -4.1446  -4.1440  -2.8071  -2.8066  -1.9442  -1.9435
     1.5113   1.5119   2.7247   2.7252   3.6824   3.6826

          k = 0.5000 0.0574 0.0000 ( 19106 PWs)   bands (ev):

   -19.1302 -19.1295 -15.3378 -15.3375 -14.0683 -14.0676 -12.8351 -12.8344
   -10.6908 -10.6904  -9.0091  -9.0088  -8.3345  -8.3340  -7.1173  -7.1167
    -4.8497  -4.8492  -4.1465  -4.1459  -2.8115  -2.8110  -1.8873  -1.8867
     1.4458   1.4464   2.7409   2.7414   3.6714   3.6716

          k = 0.5000 0.0287 0.0000 ( 19130 PWs)   bands (ev):

   -19.1350 -19.1343 -15.3423 -15.3419 -13.9892 -13.9885 -12.9204 -12.9197
   -10.6497 -10.6494  -9.0515  -9.0511  -8.3400  -8.3395  -7.1231  -7.1225
    -4.8258  -4.8253  -4.1487  -4.1482  -2.8141  -2.8136  -1.8522  -1.8515
     1.4052   1.4058   2.7506   2.7512   3.6647   3.6649

          k = 0.5000 0.0000 0.0000 ( 19126 PWs)   bands (ev):

   -19.1367 -19.1360 -15.3438 -15.3434 -13.9598 -13.9591 -12.9517 -12.9510
   -10.6356 -10.6352  -9.0661  -9.0658  -8.3418  -8.3413  -7.1250  -7.1244
    -4.8177  -4.8172  -4.1496  -4.1490  -2.8150  -2.8145  -1.8402  -1.8395
     1.3915   1.3921   2.7539   2.7545   3.6625   3.6627

          k = 0.4833 0.0000 0.0000 ( 19124 PWs)   bands (ev):

   -19.1684 -19.1031 -15.4335 -15.2530 -13.9871 -13.9310 -12.9761 -12.9262
   -10.7166 -10.5533  -9.1432  -8.9879  -8.4415  -8.2426  -7.1629  -7.0852
    -4.9122  -4.7240  -4.2134  -4.0867  -2.9103  -2.7189  -1.8790  -1.7994
     1.3700   1.4122   2.6455   2.8638   3.6186   3.7081

          k = 0.4667 0.0000 0.0000 ( 19112 PWs)   bands (ev):

   -19.1995 -19.0689 -15.5227 -15.1619 -14.0137 -13.9015 -13.0002 -12.9004
   -10.7970 -10.4705  -9.2196  -8.9091  -8.5423  -8.1448  -7.1999  -7.0444
    -5.0081  -4.6319  -4.2789  -4.0257  -3.0056  -2.6227  -1.9169  -1.7576
     1.3467   1.4312   2.5376   2.9742   3.5761   3.7551

          k = 0.4500 0.0000 0.0000 ( 19132 PWs)   bands (ev):

   -19.2294 -19.0335 -15.6112 -15.0701 -14.0394 -13.8712 -13.0236 -12.8743
   -10.8765 -10.3870  -9.2951  -8.8296  -8.6439  -8.0484  -7.2357  -7.0024
    -5.1051  -4.5414  -4.3460  -3.9664  -3.1006  -2.5265  -1.9535  -1.7145
     1.3219   1.4488   2.4307   3.0855   3.5350   3.8036

          k = 0.4333 0.0000 0.0000 ( 19126 PWs)   bands (ev):

   -19.2583 -18.9971 -15.6990 -14.9778 -14.0642 -13.8399 -13.0465 -12.8478
   -10.9553 -10.3027  -9.3697  -8.7494  -8.7460  -7.9533  -7.2702  -6.9591
    -5.2030  -4.4523  -4.4146  -3.9087  -3.1951  -2.4300  -1.9888  -1.6701
     1.2955   1.4653   2.3247   3.1977   3.4955   3.8536

          k = 0.4167 0.0000 0.0000 ( 19134 PWs)   bands (ev):

   -19.2861 -18.9597 -15.7860 -14.8850 -14.0881 -13.8076 -13.0686 -12.8209
   -11.0332 -10.2175  -9.4434  -8.8484  -8.6685  -7.8600  -7.3034  -6.9146
    -5.3019  -4.4844  -4.3650  -3.8527  -3.2892  -2.3337  -2.0227  -1.6244
     1.2674   1.4806   2.2196   3.3106   3.4574   3.9051

          k = 0.4000 0.0000 0.0000 ( 19140 PWs)   bands (ev):

   -19.3128 -18.9211 -15.8723 -14.7917 -14.1110 -13.7745 -13.0900 -12.7939
   -11.1103 -10.1316  -9.5161  -8.9511  -8.5871  -7.7686  -7.3353  -6.8689
    -5.4015  -4.5553  -4.2795  -3.7985  -3.3829  -2.2371  -2.0553  -1.5774
     1.2376   1.4947   2.1155   3.4209   3.4243   3.9580

          k = 0.3833 0.0000 0.0000 ( 19151 PWs)   bands (ev):

   -19.3384 -18.8815 -15.9578 -14.6980 -14.1330 -13.7404 -13.1108 -12.7667
   -11.1866 -10.0450  -9.5877  -9.0539  -8.5050  -7.6791  -7.3659  -6.8219
    -5.5018  -4.6276  -4.1960  -3.7463  -3.4760  -2.1406  -2.0866  -1.5291
     1.2061   1.5078   2.0123   3.3858   3.5387   4.0125

[...]

   -19.4088 -18.7563 -16.2095 -14.4148 -14.1933 -13.6326 -13.1681 -12.6855
   -11.4103  -9.7957  -9.7805  -9.3600  -8.2555  -7.4500  -7.4239  -6.6736
    -5.8065  -4.8515  -3.9584  -3.7520  -3.6007  -2.1725  -1.8516  -1.3767
     1.1001   1.5414   1.7086   3.2896   3.8862   4.1848

          k = 0.3167 0.0000 0.0000 ( 19171 PWs)   bands (ev):

   -19.4301 -18.7125 -16.2918 -14.3199 -14.2115 -13.5948 -13.1857 -12.6590
   -11.4832  -9.8625  -9.6909  -9.4607  -8.1713  -7.4755  -7.3439  -6.6217
    -5.9090  -4.9282  -3.8840  -3.8428  -3.5560  -2.1986  -1.7557  -1.3233
     1.0609   1.5508   1.6094   3.2605   4.0034   4.2452

          k = 0.3000 0.0000 0.0000 ( 19189 PWs)   bands (ev):

   -19.4503 -18.6675 -16.3732 -14.2289 -14.2250 -13.5561 -13.2024 -12.6332
   -11.5552  -9.9280  -9.6006  -9.5604  -8.0866  -7.4997  -7.2666  -6.5687
    -6.0118  -5.0059  -3.9329  -3.8124  -3.5135  -2.2232  -1.6601  -1.2687
     1.0197   1.5113   1.5594   3.2329   4.1213   4.3071

          k = 0.2833 0.0000 0.0000 ( 19199 PWs)   bands (ev):

   -19.4694 -18.6216 -16.4537 -14.2452 -14.1300 -13.5165 -13.2182 -12.6081
   -11.6263  -9.9920  -9.6586  -9.5097  -8.0016  -7.5225  -7.1923  -6.5144
    -6.1149  -5.0845  -4.0224  -3.7435  -3.4729  -2.2466  -1.5648  -1.2127
     0.9764   1.4141   1.5673   3.2068   4.2398   4.3705

          k = 0.2667 0.0000 0.0000 ( 19175 PWs)   bands (ev):

   -19.4874 -18.5745 -16.5333 -14.2607 -14.0351 -13.4759 -13.2332 -12.5840
   -11.6966 -10.0544  -9.7551  -9.4179  -7.9160  -7.5441  -7.1211  -6.4589
    -6.2181  -5.1639  -4.1111  -3.6775  -3.4344  -2.2685  -1.4700  -1.1555
     0.9312   1.3180   1.5746   3.1821   4.3589   4.4353

          k = 0.2500 0.0000 0.0000 ( 19179 PWs)   bands (ev):

   -19.5044 -18.5264 -16.6120 -14.2752 -13.9404 -13.4344 -13.2474 -12.5614
   -11.7661 -10.1152  -9.8495  -9.3255  -7.8301  -7.5644  -7.0533  -6.4022
    -6.3216  -5.2442  -4.1992  -3.6148  -3.3981  -2.2892  -1.3756  -1.0969
     0.8840   1.2230   1.5810   3.1590   4.4785   4.5017

          k = 0.2333 0.0000 0.0000 ( 19203 PWs)   bands (ev):

   -19.5202 -18.4773 -16.6899 -14.2888 -13.8460 -13.3920 -13.2606 -12.5405
   -11.8347 -10.1742  -9.9416  -9.2324  -7.7440  -7.5834  -6.9891  -6.4254
    -6.3444  -5.3254  -4.2864  -3.5550  -3.3639  -2.3086  -1.2819  -1.0372
     0.8346   1.1290   1.5869   3.1374   4.5695   4.5986

          k = 0.2167 0.0000 0.0000 ( 19199 PWs)   bands (ev):

   -19.5350 -18.4272 -16.7668 -14.3014 -13.7521 -13.3487 -13.2730 -12.5216
   -11.9024 -10.2312 -10.0307  -9.1387  -7.6574  -7.6011  -6.9283  -6.5292
    -6.2854  -5.4072  -4.3728  -3.4987  -3.3320  -2.3267  -1.1887  -0.9762
     0.7832   1.0360   1.5923   3.1173   4.6388   4.7192

          k = 0.2000 0.0000 0.0000 ( 19205 PWs)   bands (ev):

   -19.5486 -18.3759 -16.8428 -14.3131 -13.6589 -13.3044 -13.2845 -12.5053
   -11.9692 -10.2861 -10.1165  -9.0443  -7.6175  -7.5707  -6.8711  -6.6330
    -6.2253  -5.4897  -4.4584  -3.4463  -3.3024  -2.3434  -1.0963  -0.9138
     0.7298   0.9441   1.5971   3.0986   4.7096   4.8403

          k = 0.1833 0.0000 0.0000 ( 19209 PWs)   bands (ev):

   -19.5612 -18.3237 -16.9179 -14.3239 -13.5665 -13.2951 -13.2592 -12.4920
   -12.0352 -10.3387 -10.1984  -8.9493  -7.6325  -7.4836  -6.8180  -6.7368
    -6.1639  -5.5730  -4.5432  -3.3971  -3.2749  -2.3587  -1.0047  -0.8501
     0.6743   0.8532   1.6014   3.0815   4.7819   4.9619

          k = 0.1667 0.0000 0.0000 ( 19201 PWs)   bands (ev):

   -19.5727 -18.2704 -16.9921 -14.3337 -13.4752 -13.3048 -13.2131 -12.4824
   -12.1002 -10.3888 -10.2757  -8.8536  -7.6463  -7.3964  -6.8406  -6.7690
    -6.1015  -5.6568  -4.6271  -3.3516  -3.2499  -2.3729  -0.9138  -0.7854
     0.6166   0.7636   1.6052   3.0658   4.8556   5.0180

          k = 0.1500 0.0000 0.0000 ( 19193 PWs)   bands (ev):

   -19.5831 -18.2161 -17.0653 -14.3426 -13.3853 -13.3136 -13.1661 -12.4769
   -12.1644 -10.4361 -10.3477  -8.7574  -7.6587  -7.3089  -6.9442  -6.7240
    -6.0379  -5.7412  -4.7102  -3.3101  -3.2271  -2.3856  -0.8239  -0.7193
     0.5569   0.6751   1.6086   3.0516   4.9309   5.0041

          k = 0.1333 0.0000 0.0000 ( 19187 PWs)   bands (ev):

   -19.5924 -18.1607 -17.1376 -14.3505 -13.3215 -13.2970 -13.1182 -12.4762
   -12.2277 -10.4802 -10.4140  -8.6607  -7.6699  -7.2214  -7.0477  -6.6834
    -5.9731  -5.8260  -4.7924  -3.2726  -3.2067  -2.3969  -0.7350  -0.6521
     0.4952   0.5878   1.6115   3.0389   4.9916   5.0076

          k = 0.1167 0.0000 0.0000 ( 19191 PWs)   bands (ev):

   -19.6006 -18.1043 -17.2090 -14.3576 -13.3285 -13.2107 -13.0693 -12.4810
   -12.2901 -10.5210 -10.4738  -8.5633  -7.6797  -7.1510  -7.1337  -6.6473
    -5.9114  -5.9072  -4.8737  -3.2394  -3.1886  -2.4070  -0.6471  -0.5836
     0.4314   0.5015   1.6141   3.0278   4.9806   5.0858

          k = 0.1000 0.0000 0.0000 ( 19191 PWs)   bands (ev):

   -19.6077 -18.0469 -17.2793 -14.3636 -13.3345 -13.1267 -13.0196 -12.4918
   -12.3516 -10.5581 -10.5265  -8.4654  -7.6882  -7.2542  -7.0459  -6.6158
    -5.9972  -5.8402  -4.9540  -3.2104  -3.1728  -2.4157  -0.5604  -0.5139
     0.3656   0.4163   1.6162   3.0181   4.9711   5.1654

          k = 0.0833 0.0000 0.0000 ( 19195 PWs)   bands (ev):

   -19.6137 -17.9885 -17.3487 -14.3688 -13.3396 -13.0457 -12.9689 -12.5092
   -12.4122 -10.5908 -10.5714  -8.3669  -7.6954  -7.3573  -6.9580  -6.5891
    -6.0835  -5.7721  -5.0334  -3.1856  -3.1595  -2.4230  -0.4749  -0.4429
     0.2979   0.3323   1.6180   3.0099   4.9630   5.2466

          k = 0.0667 0.0000 0.0000 ( 19195 PWs)   bands (ev):

   -19.6186 -17.9290 -17.4172 -14.3730 -13.3438 -12.9679 -12.9173 -12.5336
   -12.4720 -10.6189 -10.6083  -8.2679  -7.7013  -7.4599  -6.8701  -6.5672
    -6.1700  -5.7030  -5.1118  -3.1652  -3.1485  -2.4290  -0.3907  -0.3708
     0.2283   0.2495   1.6195   3.0031   4.9564   5.3292

          k = 0.0500 0.0000 0.0000 ( 19191 PWs)   bands (ev):

   -19.6224 -17.8685 -17.4846 -14.3763 -13.3471 -12.8941 -12.8648 -12.5650
   -12.5308 -10.6416 -10.6368  -8.1684  -7.7059  -7.5622  -6.7822  -6.5500
    -6.2569  -5.6327  -5.1892  -3.1493  -3.1400  -2.4337  -0.3079  -0.2974
     0.1568   0.1679   1.6205   2.9979   4.9513   5.4132

          k = 0.0333 0.0000 0.0000 ( 19177 PWs)   bands (ev):

   -19.6251 -17.8070 -17.5511 -14.3786 -13.3494 -12.8247 -12.8114 -12.6037
   -12.5887 -10.6586 -10.6570  -8.0683  -7.7091  -7.6641  -6.6943  -6.5376
    -6.3439  -5.5614  -5.2657  -3.1378  -3.1339  -2.4370  -0.2266  -0.2229
     0.0835   0.0874   1.6213   2.9942   4.9476   5.4988

          k = 0.0167 0.0000 0.0000 ( 19169 PWs)   bands (ev):

   -19.6268 -17.7446 -17.6166 -14.3800 -13.3508 -12.7604 -12.7571 -12.6494
   -12.6458 -10.6692 -10.6689  -7.9679  -7.7658  -7.7111  -6.6065  -6.5302
    -6.4313  -5.4890  -5.3411  -3.1307  -3.1299  -2.4390  -0.1471  -0.1466
     0.0080   0.0085   1.6218   2.9920   4.9454   5.5858

          k = 0.0000 0.0000 0.0000 ( 19149 PWs)   bands (ev):

   -19.6273 -17.6811 -17.6810 -14.3805 -13.3513 -12.7019 -12.7019 -12.7018
   -12.7018 -10.6727 -10.6727  -7.8671  -7.8670  -7.7116  -6.5277  -6.5189
    -6.5188  -5.4156  -5.4156  -3.1287  -3.1282  -2.4397  -0.0702  -0.0701
    -0.0683  -0.0682   1.6219   2.9912   4.9447   5.6742

          k = 0.0167 0.0287 0.0000 ( 19169 PWs)   bands (ev):

   -19.6252 -17.7430 -17.6150 -14.4104 -13.3180 -12.8245 -12.8109 -12.6039
   -12.5891 -10.6585 -10.6573  -7.9790  -7.7767  -7.7092  -6.5978  -6.5286
    -6.4230  -5.4872  -5.3394  -3.1381  -3.1333  -2.4498  -0.2274  -0.2209
     0.0816   0.0882   1.6351   2.9942   4.9476   5.5880

          k = 0.0333 0.0574 0.0000 ( 19189 PWs)   bands (ev):

   -19.6187 -17.8007 -17.5447 -14.4906 -13.2277 -12.9672 -12.9165 -12.5336
   -12.4728 -10.6189 -10.6093  -8.1124  -7.7065  -7.7014  -6.6592  -6.5311
    -6.3127  -5.5543  -5.2587  -3.1653  -3.1481  -2.4796  -0.3909  -0.3683
     0.2259   0.2497   1.6740   3.0031   4.9563   5.5076

          k = 0.0500 0.0862 0.0000 ( 19200 PWs)   bands (ev):

   -19.6078 -17.8542 -17.4704 -14.6031 -13.1255 -13.0984 -13.0184 -12.4915
   -12.3529 -10.5583 -10.5283  -8.2650  -7.6884  -7.6535  -6.7045  -6.5352
    -6.1916  -5.6166  -5.1736  -3.2102  -3.1721  -2.5280  -0.5599  -0.5108
     0.3628   0.4158   1.7376   3.0179   4.9709   5.4330

          k = 0.0667 0.1149 0.0000 ( 19193 PWs)   bands (ev):

   -19.5926 -17.9035 -17.3918 -14.7333 -13.2950 -13.1167 -12.9447 -12.4754
   -12.2295 -10.4809 -10.4168  -8.4341  -7.6702  -7.6144  -6.7360  -6.5410
    -6.0641  -5.6741  -5.0840  -3.2719  -3.2058  -2.5932  -0.7338  -0.6486
     0.4920   0.5866   1.8240   3.0386   4.9913   5.3643

          k = 0.0833 0.1436 0.0000 ( 19209 PWs)   bands (ev):

   -19.5731 -17.9486 -17.3092 -14.8726 -13.4726 -13.2113 -12.7754 -12.4811
   -12.1026 -10.3899 -10.2795  -8.6164  -7.6468  -7.5860  -6.7562  -6.5484
    -5.9346  -5.7268  -4.9903  -3.3504  -3.2487  -2.6731  -0.9119  -0.7814
     0.6131   0.7616   1.9307   3.0652   5.0175   5.3015

          k = 0.1000 0.1723 0.0000 ( 19197 PWs)   bands (ev):

   -19.5492 -17.9895 -17.2225 -15.0161 -13.6555 -13.3023 -12.5952 -12.5035
   -11.9721 -10.2878 -10.1214  -8.8092  -7.6182  -7.5655  -6.7673  -6.5573
    -5.8068  -5.7745  -4.8925  -3.4444  -3.3008  -2.7653  -1.0936  -0.9095
     0.7261   0.9413   2.0556   3.0978   5.0495   5.2446

          k = 0.1167 0.2011 0.0000 ( 19189 PWs)   bands (ev):

   -19.5210 -18.0261 -17.1317 -15.1609 -13.8419 -13.3897 -12.5382 -12.4073
   -11.8382 -10.1765  -9.9476  -9.0100  -7.5843  -7.5510  -6.7715  -6.5676
    -5.8175  -5.6842  -4.7907  -3.5524  -3.3620  -2.8675  -1.2784  -1.0326
     0.8308   1.1254   2.1961   3.1363   5.0874   5.1935

          k = 0.1333 0.2298 0.0000 ( 19189 PWs)   bands (ev):

   -19.4885 -18.0585 -17.0369 -15.3054 -14.0303 -13.4734 -12.5813 -12.2133
   -11.7008 -10.0573  -9.7621  -9.2168  -7.5454  -7.5407  -6.7703  -6.5792
    -5.8555  -5.5696  -4.6850  -3.6741  -3.4319  -2.9778  -1.4657  -1.1505
     0.9272   1.3136   2.3500   3.1807   5.0516   5.1310

          k = 0.1500 0.2585 0.0000 ( 19191 PWs)   bands (ev):

   -19.4516 -18.0866 -16.9380 -15.4484 -14.2195 -13.5534 -12.6301 -12.0143
   -11.5599  -9.9315  -9.5684  -9.4279  -7.5335  -7.5012  -6.7650  -6.5920
    -5.8886  -5.4652  -4.5757  -3.8082  -3.5105  -3.0942  -1.6551  -1.2634
     1.0157   1.5060   2.5153   3.2311   4.8629   5.1091

          k = 0.1667 0.2872 0.0000 ( 19168 PWs)   bands (ev):

   -19.4104 -18.1105 -16.8352 -15.5894 -14.4086 -13.6298 -12.6821 -11.8113
   -11.4157  -9.7998  -9.6422  -9.3690  -7.5285  -7.4520  -6.7566  -6.6058
    -5.9167  -5.3731  -4.4630  -3.9532  -3.5971  -3.2151  -1.8458  -1.3712
     1.0962   1.7024   2.6899   3.2873   4.6699   5.0758

          k = 0.1833 0.3160 0.0000 ( 19162 PWs)   bands (ev):

   -19.3649 -18.1301 -16.7284 -15.7278 -14.5971 -13.7024 -12.7357 -11.6049
   -11.2681  -9.8585  -9.6630  -9.1663  -7.5250  -7.3976  -6.7456  -6.6205
    -5.9398  -5.2951  -4.3471  -4.1084  -3.6915  -3.3392  -2.0376  -1.4740
     1.1687   1.9030   2.8721   3.3495   4.4736   5.0484

          k = 0.2000 0.3447 0.0000 ( 19153 PWs)   bands (ev):

   -19.3151 -18.1455 -16.6178 -15.8633 -14.7842 -13.7714 -12.7899 -11.3955
   -11.1171 -10.0760  -9.5216  -8.9618  -7.5225  -7.3381  -6.7329  -6.6357
    -5.9579  -5.2328  -4.2725  -4.2283  -3.7936  -3.4651  -2.2298  -1.5715
     1.2338   2.1074   3.0605   3.4177   4.2746   5.0269

          k = 0.2167 0.3734 0.0000 ( 19151 PWs)   bands (ev):

   -19.2610 -18.1567 -16.5033 -15.9956 -14.9697 -13.8367 -12.8436 -11.1836
   -10.9628 -10.2940  -9.3760  -8.7575  -7.5209  -7.2735  -6.7186  -6.6518
    -5.9711  -5.1871  -4.4444  -4.1070  -3.9031  -3.5920  -2.4220  -1.6641
     1.2919   2.3156   3.2538   3.4917   4.0740   5.0113

          k = 0.2333 0.4021 0.0000 ( 19145 PWs)   bands (ev):

   -19.2026 -18.1635 -16.3851 -16.1246 -15.1532 -13.8983 -12.8962 -10.9697
   -10.8052 -10.5119  -9.2266  -8.5545  -7.5198  -7.2038  -6.7036  -6.6681
    -5.9792  -5.1588  -4.6229  -4.0193  -3.9834  -3.7189  -2.6140  -1.7515
     1.3433   2.5276   3.4505   3.5717   3.8727   5.0017

          k = 0.2500 0.4309 0.0000 ( 19150 PWs)   bands (ev):

   -19.1400 -18.1661 -16.2631 -16.2501 -15.3344 -13.9563 -12.9470 -10.7541
   -10.7291 -10.6444  -9.0737  -8.3543  -7.5190  -7.1290  -6.6881  -6.6846
    -5.9822  -5.1487  -4.8076  -4.1422  -3.8580  -3.8452  -2.8053  -1.8338
     1.3885   2.7431   3.6496   3.6576   3.6715   4.9981

          k = 0.2667 0.4596 0.0000 ( 19143 PWs)   bands (ev):

   -19.0730 -18.1645 -16.3720 -16.1375 -15.5130 -14.0105 -12.9957 -10.9452
   -10.5374 -10.4804  -8.9176  -8.1580  -7.5186  -7.0494  -6.7008  -6.6723
    -5.9803  -5.1565  -4.9973  -4.2710  -3.9703  -3.7312  -2.9955  -1.9108
     1.4281   2.9621   3.4715   3.7494   3.8501   5.0004

          k = 0.2833 0.4883 0.0000 ( 19143 PWs)   bands (ev):

   -19.0018 -18.1586 -16.4902 -16.0085 -15.6888 -14.0611 -13.0420 -11.1598
   -10.3201 -10.3133  -8.7588  -7.9671  -7.5185  -6.9647  -6.7165  -6.6565
    -5.9733  -5.1912  -5.1824  -4.4058  -4.0936  -3.6039  -3.1843  -1.9827
     1.4624   3.1845   3.2740   3.8472   4.0509   5.0087

          k = 0.3000 0.5170 0.0000 ( 19143 PWs)   bands (ev):

   -18.9264 -18.1484 -16.6046 -15.8761 -15.8616 -14.1079 -13.0855 -11.3723
   -10.1431 -10.1024  -8.5971  -7.7825  -7.5190  -6.8751  -6.7318  -6.6408
    -5.9613  -5.3888  -5.2259  -4.5458  -4.2146  -3.4764  -3.3715  -2.0493
     1.4921   3.0798   3.4101   3.9508   4.2509   5.0229

          k = 0.3167 0.5458 0.0000 ( 19149 PWs)   bands (ev):

   -18.8467 -18.1340 -16.7152 -16.0314 -15.7405 -14.1510 -13.1262 -11.5824
    -9.9700  -9.8853  -8.4332  -7.6056  -7.5203  -6.7806  -6.7454  -6.6259
    -5.9443  -5.5893  -5.2861  -4.6906  -4.3331  -3.5567  -3.3499  -2.1107
     1.5175   2.8903   3.6385   4.0604   4.4494   5.0430

          k = 0.3333 0.5745 0.0000 ( 19161 PWs)   bands (ev):

   -18.7628 -18.1153 -16.8219 -16.1980 -15.6019 -14.1904 -13.1637 -11.7896
    -9.7938  -9.6692  -8.2671  -7.5227  -7.4379  -6.7575  -6.6813  -6.6114
    -5.9223  -5.7920  -5.3620  -4.8402  -4.4488  -3.7395  -3.2252  -2.1669
     1.5392   2.7069   3.8699   4.1759   4.6453   5.0691

          k = 0.3500 0.6032 0.0000 ( 19166 PWs)   bands (ev):

   -18.6746 -18.0924 -16.9247 -16.3613 -15.4608 -14.2261 -13.1981 -11.9934
    -9.6147  -9.4552  -8.0990  -7.5265  -7.2803  -6.7672  -6.5977  -6.5771
    -5.9964  -5.8953  -5.4522  -4.9937  -4.5613  -3.9200  -3.1035  -2.2178
     1.5574   2.5310   4.1039   4.2973   4.8379   5.1011

          k = 0.3667 0.6319 0.0000 ( 19156 PWs)   bands (ev):

   -18.5823 -18.0652 -17.0235 -16.5211 -15.3175 -14.2581 -13.2290 -12.1932
    -9.4329  -9.2442  -7.9293  -7.5324  -7.1343  -6.7738  -6.5849  -6.4681
    -6.2019  -5.8634  -5.5549  -5.1509  -4.6703  -4.0977  -2.9862  -2.2633
     1.5728   2.3644   4.3403   4.4246   5.0263   5.1390

          k = 0.3833 0.6606 0.0000 ( 19158 PWs)   bands (ev):

   -18.4858 -18.0337 -17.1183 -16.6774 -15.1728 -14.2864 -13.2566 -12.3882
    -9.2483  -9.0373  -7.7579  -7.5414  -7.0017  -6.7763  -6.5733  -6.4084
    -6.3545  -5.8265  -5.6680  -5.3115  -4.7758  -4.2725  -2.8749  -2.3037
     1.5853   2.2089   4.5578   4.5790   5.1829   5.2097

          k = 0.4000 0.6894 0.0000 ( 19149 PWs)   bands (ev):

   -18.3852 -17.9981 -17.2090 -16.8300 -15.0277 -14.3110 -13.2807 -12.5772
    -9.0611  -8.8364  -7.5853  -7.5546  -6.8829  -6.7737  -6.6152  -6.5628
    -6.2362  -5.7893  -5.7846  -5.4750  -4.8775  -4.4442  -2.7716  -2.3387
     1.5957   2.0668   4.6968   4.8196   5.2326   5.3870

          k = 0.4167 0.7181 0.0000 ( 19170 PWs)   bands (ev):

   -18.2804 -17.9582 -17.2957 -16.9791 -14.8838 -14.3319 -13.3013 -12.7585
    -8.8714  -8.6432  -7.5736  -7.4118  -6.8221  -6.7797  -6.7643  -6.5536
    -6.1133  -5.9161  -5.7380  -5.6412  -4.9752  -4.6125  -2.6782  -2.3686
     1.6039   1.9401   4.8418   5.0622   5.2882   5.5580

          k = 0.4333 0.7468 0.0000 ( 19158 PWs)   bands (ev):

   -18.1715 -17.9140 -17.3783 -17.1244 -14.7437 -14.3490 -13.3182 -12.9293
    -8.6794  -8.4604  -7.6004  -7.2376  -7.0284  -6.7460  -6.6930  -6.5459
    -6.0447  -5.9859  -5.8096  -5.6864  -5.0688  -4.7775  -2.5970  -2.3931
     1.6104   1.8314   4.9926   5.3063   5.3497   5.7218

          k = 0.4500 0.7755 0.0000 ( 19159 PWs)   bands (ev):

   -18.0585 -17.8657 -17.4568 -17.2659 -14.6123 -14.3624 -13.3315 -13.0849
    -8.4850  -8.2905  -7.6378  -7.2342  -7.0628  -6.7166  -6.6237  -6.5396
    -6.1718  -5.9800  -5.8539  -5.6300  -5.1582  -4.9389  -2.5304  -2.4122
     1.6153   1.7431   5.1492   5.4170   5.5516   5.8778

          k = 0.4667 0.8043 0.0000 ( 19162 PWs)   bands (ev):

   -17.9415 -17.8131 -17.5311 -17.4036 -14.4979 -14.3721 -13.3411 -13.2169
    -8.2885  -8.1369  -7.6889  -7.4393  -6.8876  -6.6735  -6.5734  -6.5348
    -6.2927  -6.1520  -5.7176  -5.5688  -5.2432  -5.0964  -2.4806  -2.4260
     1.6187   1.6775   5.3118   5.4902   5.7979   5.8833

          k = 0.4833 0.8330 0.0000 ( 19148 PWs)   bands (ev):

   -17.8204 -17.7563 -17.6013 -17.5375 -14.4145 -14.3781 -13.3471 -13.3111
    -8.0898  -8.0025  -7.7570  -7.6429  -6.7125  -6.6144  -6.5420  -6.5316
    -6.4032  -6.3251  -5.5770  -5.5028  -5.3238  -5.2501  -2.4493  -2.4346
     1.6206   1.6365   5.4801   5.5693   5.7854   5.8745

          k = 0.5000 0.8617 0.0000 ( 19152 PWs)   bands (ev):

   -17.6957 -17.6950 -17.6677 -17.6670 -14.3808 -14.3801 -13.3495 -13.3491
    -7.8897  -7.8893  -7.8454  -7.8451  -6.5377  -6.5376  -6.5303  -6.5297
    -6.4994  -6.4993  -5.4325  -5.4319  -5.4002  -5.3996  -2.4381  -2.4376
     1.6212   1.6216   5.6542   5.6544   5.6932   5.6934

     Writing all to output data dir /mnt/dalessandro-jobid_50294/bands.save/

     init_run     :      0.64s CPU      0.52s WALL (       1 calls)
     electrons    :    135.62s CPU     69.42s WALL (       1 calls)

     Called by init_run:
     wfcinit      :      0.00s CPU      0.00s WALL (       1 calls)
     wfcinit:atom :      0.15s CPU      0.08s WALL (     151 calls)
     wfcinit:wfcr :      6.50s CPU      3.32s WALL (     151 calls)
     potinit      :      0.04s CPU      0.02s WALL (       1 calls)
     hinit0       :      0.50s CPU      0.39s WALL (       1 calls)

     Called by electrons:
     c_bands      :    135.61s CPU     69.42s WALL (       1 calls)
     v_of_rho     :      0.03s CPU      0.02s WALL (       1 calls)
     v_h          :      0.00s CPU      0.00s WALL (       1 calls)
     v_xc         :      0.03s CPU      0.02s WALL (       1 calls)

     Called by c_bands:
     init_us_2    :      0.12s CPU      0.06s WALL (     151 calls)
     init_us_2:cp :      0.12s CPU      0.06s WALL (     151 calls)
     cegterg      :    127.27s CPU     64.79s WALL (     445 calls)

     Called by sum_band:

     Called by *egterg:
     cdiaghg      :     16.97s CPU      8.54s WALL (    7683 calls)
     cegterg:over :      6.48s CPU      3.27s WALL (    7532 calls)
     cegterg:upda :      3.49s CPU      1.76s WALL (    7532 calls)
     cegterg:last :      5.05s CPU      2.54s WALL (    3761 calls)
     h_psi        :     98.17s CPU     50.18s WALL (    8128 calls)
     g_psi        :      1.21s CPU      0.61s WALL (    7532 calls)

     Called by h_psi:
     h_psi:calbec :      6.40s CPU      3.24s WALL (    8128 calls)
     vloc_psi     :     86.21s CPU     44.14s WALL (    8128 calls)
     add_vuspsi   :      4.92s CPU      2.48s WALL (    8128 calls)

     General routines
     calbec       :      6.35s CPU      3.22s WALL (    8128 calls)
     fft          :      0.04s CPU      0.03s WALL (      11 calls)
     fftw         :     76.18s CPU     38.99s WALL (  244692 calls)
     davcio       :      0.11s CPU      0.09s WALL (     302 calls)

     Parallel routines

     PWSCF        :   2m17.67s CPU   1m11.98s WALL


   This run was terminated on:  12:54: 7  21Jan2026            

=------------------------------------------------------------------------------=
   JOB DONE.
=------------------------------------------------------------------------------=
