
     Program PWSCF v.7.0 starts on 21Jan2026 at 12:51:12 

     This program is part of the open-source Quantum ESPRESSO suite
     for quantum simulation of materials; please cite
         "P. Giannozzi et al., J. Phys.:Condens. Matter 21 395502 (2009);
         "P. Giannozzi et al., J. Phys.:Condens. Matter 29 465901 (2017);
         "P. Giannozzi et al., J. Chem. Phys. 152 154105 (2020);
          URL http://www.quantum-espresso.org", 
     in publications or presentations arising from this work. More details at
     http://www.quantum-espresso.org/quote

     Parallel version (MPI & OpenMP), running on      32 processor cores
     Number of MPI processes:                16
     Threads/MPI process:                     2

     MPI processes distributed on     1 nodes
     R & G space division:  proc/nbgrp/npool/nimage =      16
     121778 MiB available memory on the printing compute node when the environment starts

     Reading input from gs_converged_from_AGSL5.in

     Current dimensions of program PWSCF are:
     Max number of different atomic species (ntypx) = 10
     Max number of k-points (npk) =  40000
     Max angular momentum in pseudopotentials (lmaxx) =  4
     Message from routine setup:
     using ibrav=0 with symmetry is DISCOURAGED, use correct ibrav instead

     Subspace diagonalization in iterative solution of the eigenvalue problem:
     a serial algorithm will be used


     Parallelization info
     --------------------
     sticks:   dense  smooth     PW     G-vecs:    dense   smooth      PW
     Min         156     156     43                 9572     9572    1399
     Max         157     157     44                 9577     9577    1404
     Sum        2509    2509    697               153199   153199   22417

     Using Slab Decomposition



     bravais-lattice index     =            0
     lattice parameter (alat)  =      13.9710  a.u.
     unit-cell volume          =    1937.9177 (a.u.)^3
     number of atoms/cell      =           12
     number of atomic types    =            1
     number of electrons       =        48.00
     number of Kohn-Sham states=           26
     kinetic-energy cutoff     =      70.0000  Ry
     charge density cutoff     =     280.0000  Ry
     scf convergence threshold =      1.0E-07
     mixing beta               =       0.7000
     number of iterations used =            8  plain     mixing
     Exchange-correlation= PBE
                           (   1   4   3   4   0   0   0)

     celldm(1)=  13.971023  celldm(2)=   0.000000  celldm(3)=   0.000000
     celldm(4)=   0.000000  celldm(5)=   0.000000  celldm(6)=   0.000000

     crystal axes: (cart. coord. in units of alat)
               a(1) = (   1.000000   0.000000   0.000000 )  
               a(2) = (   0.000000   0.577421   0.000000 )  
               a(3) = (   0.000000   0.000000   1.230717 )  

     reciprocal axes: (cart. coord. in units 2 pi/alat)
               b(1) = (  1.000000 -0.000000  0.000000 )  
               b(2) = ( -0.000000  1.731839  0.000000 )  
               b(3) = (  0.000000  0.000000  0.812534 )  


     PseudoPot. # 1 for C  read from file:
     ../../pseudos/C_ONCV_PBE.upf
     MD5 check sum: 34a24e64c0a39f27c6c36b90a16ac686
     Pseudo is Norm-conserving + core correction, Zval =  4.0
     Generated using ONCVPSP code by D. R. Hamann
     Using radial grid of 1248 points,  4 beta functions with: 
                l(1) =   0
                l(2) =   0
                l(3) =   1
                l(4) =   1

     atomic species   valence    mass     pseudopotential
        C              4.00    12.01100     C ( 1.00)

      4 Sym. Ops. (no inversion) found


                                    s                        frac. trans.

      isym =  1     identity                                     

 cryst.   s( 1) = (     1          0          0      )
                  (     0          1          0      )
                  (     0          0          1      )

 cart.    s( 1) = (  1.0000000  0.0000000  0.0000000 )
                  (  0.0000000  1.0000000  0.0000000 )
                  (  0.0000000  0.0000000  1.0000000 )


      isym =  2     180 deg rotation - cart. axis [1,0,0]        

 cryst.   s( 2) = (     1          0          0      )
                  (     0         -1          0      )
                  (     0          0         -1      )

 cart.    s( 2) = (  1.0000000 -0.0000000  0.0000000 )
                  (  0.0000003 -1.0000000  0.0000000 )
                  (  0.0000000  0.0000000 -1.0000000 )


      isym =  3     inv. 180 deg rotation - cart. axis [0,0,1]   

 cryst.   s( 3) = (     1          0          0      )
                  (     0          1          0      )
                  (     0          0         -1      )

 cart.    s( 3) = (  1.0000000  0.0000000  0.0000000 )
                  (  0.0000000  1.0000000  0.0000000 )
                  (  0.0000000  0.0000000 -1.0000000 )


      isym =  4     inv. 180 deg rotation - cart. axis [0,1,0]   

 cryst.   s( 4) = (     1          0          0      )
                  (     0         -1          0      )
                  (     0          0          1      )

 cart.    s( 4) = (  1.0000000 -0.0000000  0.0000000 )
                  (  0.0000003 -1.0000000  0.0000000 )
                  (  0.0000000  0.0000000  1.0000000 )


   Cartesian axes

     site n.     atom                  positions (alat units)
         1           C   tau(   1) = (  -0.2467197   0.1924714  -0.0000000  )
         2           C   tau(   2) = (   0.0866140   0.1924720   0.0000000  )
         3           C   tau(   3) = (   0.4199478   0.1924720   0.0000000  )
         4           C   tau(   4) = (  -0.0800502   0.0962452  -0.0000000  )
         5           C   tau(   5) = (   0.2532838   0.0962448   0.0000000  )
         6           C   tau(   6) = (  -0.4133832  -0.0962448   0.0000000  )
         7           C   tau(   7) = (  -0.0800502  -0.0962452   0.0000000  )
         8           C   tau(   8) = (   0.2532838  -0.0962448  -0.0000000  )
         9           C   tau(   9) = (  -0.2467197  -0.1924714   0.0000000  )
        10           C   tau(  10) = (   0.0866140  -0.1924720  -0.0000000  )
        11           C   tau(  11) = (   0.4199478  -0.1924720  -0.0000000  )
        12           C   tau(  12) = (  -0.4133832   0.0962448   0.0000000  )

   Crystallographic axes

     site n.     atom                  positions (cryst. coord.)
         1           C   tau(   1) = ( -0.2467197  0.3333294  0.0000000  )
         2           C   tau(   2) = (  0.0866140  0.3333305  0.0000000  )
         3           C   tau(   3) = (  0.4199478  0.3333304  0.0000000  )
         4           C   tau(   4) = ( -0.0800502  0.1666812  0.0000000  )
         5           C   tau(   5) = (  0.2532838  0.1666804  0.0000000  )
         6           C   tau(   6) = ( -0.4133832 -0.1666804  0.0000000  )
         7           C   tau(   7) = ( -0.0800502 -0.1666811  0.0000000  )
         8           C   tau(   8) = (  0.2532838 -0.1666805  0.0000000  )
         9           C   tau(   9) = ( -0.2467197 -0.3333293  0.0000000  )
        10           C   tau(  10) = (  0.0866140 -0.3333305  0.0000000  )
        11           C   tau(  11) = (  0.4199478 -0.3333306  0.0000000  )
        12           C   tau(  12) = ( -0.4133832  0.1666806  0.0000000  )

     number of k points=    36
                       cart. coord. in units 2pi/alat
        k(    1) = (   0.0000000   0.0000000   0.0000000), wk =   0.0200000
        k(    2) = (  -0.0000000   0.1731839   0.0000000), wk =   0.0400000
        k(    3) = (  -0.0000000   0.3463678   0.0000000), wk =   0.0400000
        k(    4) = (  -0.0000001   0.5195516   0.0000000), wk =   0.0400000
        k(    5) = (  -0.0000001   0.6927355   0.0000000), wk =   0.0400000
        k(    6) = (   0.0000001  -0.8659194   0.0000000), wk =   0.0200000
        k(    7) = (   0.1000000  -0.0000000   0.0000000), wk =   0.0400000
        k(    8) = (   0.1000000   0.1731839   0.0000000), wk =   0.0800000
        k(    9) = (   0.1000000   0.3463678   0.0000000), wk =   0.0800000
        k(   10) = (   0.0999999   0.5195516   0.0000000), wk =   0.0800000
        k(   11) = (   0.0999999   0.6927355   0.0000000), wk =   0.0800000
        k(   12) = (   0.1000001  -0.8659194   0.0000000), wk =   0.0400000
        k(   13) = (   0.2000000  -0.0000000   0.0000000), wk =   0.0400000
        k(   14) = (   0.2000000   0.1731839   0.0000000), wk =   0.0800000
        k(   15) = (   0.2000000   0.3463678   0.0000000), wk =   0.0800000
        k(   16) = (   0.1999999   0.5195516   0.0000000), wk =   0.0800000
        k(   17) = (   0.1999999   0.6927355   0.0000000), wk =   0.0800000
        k(   18) = (   0.2000001  -0.8659194   0.0000000), wk =   0.0400000
        k(   19) = (   0.3000000  -0.0000000   0.0000000), wk =   0.0400000
        k(   20) = (   0.3000000   0.1731839   0.0000000), wk =   0.0800000
        k(   21) = (   0.3000000   0.3463678   0.0000000), wk =   0.0800000
        k(   22) = (   0.2999999   0.5195516   0.0000000), wk =   0.0800000
        k(   23) = (   0.2999999   0.6927355   0.0000000), wk =   0.0800000
        k(   24) = (   0.3000001  -0.8659194   0.0000000), wk =   0.0400000
        k(   25) = (   0.4000000  -0.0000000   0.0000000), wk =   0.0400000
        k(   26) = (   0.4000000   0.1731839   0.0000000), wk =   0.0800000
        k(   27) = (   0.4000000   0.3463678   0.0000000), wk =   0.0800000
        k(   28) = (   0.3999999   0.5195516   0.0000000), wk =   0.0800000
        k(   29) = (   0.3999999   0.6927355   0.0000000), wk =   0.0800000
        k(   30) = (   0.4000001  -0.8659194   0.0000000), wk =   0.0400000
        k(   31) = (  -0.5000000   0.0000000   0.0000000), wk =   0.0200000
        k(   32) = (  -0.5000000   0.1731839   0.0000000), wk =   0.0400000
        k(   33) = (  -0.5000000   0.3463678   0.0000000), wk =   0.0400000
        k(   34) = (  -0.5000001   0.5195516   0.0000000), wk =   0.0400000
        k(   35) = (  -0.5000001   0.6927355   0.0000000), wk =   0.0400000
        k(   36) = (  -0.4999999  -0.8659194   0.0000000), wk =   0.0200000

                       cryst. coord.
        k(    1) = (   0.0000000   0.0000000   0.0000000), wk =   0.0200000
        k(    2) = (   0.0000000   0.1000000   0.0000000), wk =   0.0400000
        k(    3) = (   0.0000000   0.2000000   0.0000000), wk =   0.0400000
        k(    4) = (   0.0000000   0.3000000   0.0000000), wk =   0.0400000
        k(    5) = (   0.0000000   0.4000000   0.0000000), wk =   0.0400000
        k(    6) = (  -0.0000000  -0.5000000   0.0000000), wk =   0.0200000
        k(    7) = (   0.1000000   0.0000000   0.0000000), wk =   0.0400000
        k(    8) = (   0.1000000   0.1000000   0.0000000), wk =   0.0800000
        k(    9) = (   0.1000000   0.2000000   0.0000000), wk =   0.0800000
        k(   10) = (   0.1000000   0.3000000   0.0000000), wk =   0.0800000
        k(   11) = (   0.1000000   0.4000000   0.0000000), wk =   0.0800000
        k(   12) = (   0.1000000  -0.5000000   0.0000000), wk =   0.0400000
        k(   13) = (   0.2000000   0.0000000   0.0000000), wk =   0.0400000
        k(   14) = (   0.2000000   0.1000000   0.0000000), wk =   0.0800000
        k(   15) = (   0.2000000   0.2000000   0.0000000), wk =   0.0800000
        k(   16) = (   0.2000000   0.3000000   0.0000000), wk =   0.0800000
        k(   17) = (   0.2000000   0.4000000   0.0000000), wk =   0.0800000
        k(   18) = (   0.2000000  -0.5000000   0.0000000), wk =   0.0400000
        k(   19) = (   0.3000000   0.0000000   0.0000000), wk =   0.0400000
        k(   20) = (   0.3000000   0.1000000   0.0000000), wk =   0.0800000
        k(   21) = (   0.3000000   0.2000000   0.0000000), wk =   0.0800000
        k(   22) = (   0.3000000   0.3000000   0.0000000), wk =   0.0800000
        k(   23) = (   0.3000000   0.4000000   0.0000000), wk =   0.0800000
        k(   24) = (   0.3000000  -0.5000000   0.0000000), wk =   0.0400000
        k(   25) = (   0.4000000   0.0000000   0.0000000), wk =   0.0400000
        k(   26) = (   0.4000000   0.1000000   0.0000000), wk =   0.0800000
        k(   27) = (   0.4000000   0.2000000   0.0000000), wk =   0.0800000
        k(   28) = (   0.4000000   0.3000000   0.0000000), wk =   0.0800000
        k(   29) = (   0.4000000   0.4000000   0.0000000), wk =   0.0800000
        k(   30) = (   0.4000000  -0.5000000   0.0000000), wk =   0.0400000
        k(   31) = (  -0.5000000  -0.0000000   0.0000000), wk =   0.0200000
        k(   32) = (  -0.5000000   0.1000000   0.0000000), wk =   0.0400000
        k(   33) = (  -0.5000000   0.2000000   0.0000000), wk =   0.0400000
        k(   34) = (  -0.5000000   0.3000000   0.0000000), wk =   0.0400000
        k(   35) = (  -0.5000000   0.4000000   0.0000000), wk =   0.0400000
        k(   36) = (  -0.5000000  -0.5000000   0.0000000), wk =   0.0200000

     Dense  grid:   153199 G-vectors     FFT dimensions: (  75,  45,  96)

     Dynamical RAM for                 wfc:       0.47 MB

     Dynamical RAM for     wfc (w. buffer):      17.57 MB

     Dynamical RAM for           str. fact:       0.15 MB

     Dynamical RAM for           local pot:       0.00 MB

     Dynamical RAM for          nlocal pot:       1.75 MB

     Dynamical RAM for                qrad:       0.38 MB

     Dynamical RAM for          rho,v,vnew:       0.90 MB

     Dynamical RAM for               rhoin:       0.30 MB

     Dynamical RAM for            rho*nmix:       2.34 MB

     Dynamical RAM for           G-vectors:       0.62 MB

     Dynamical RAM for          h,s,v(r/c):       0.12 MB

     Dynamical RAM for          <psi|beta>:       0.04 MB

     Dynamical RAM for                 psi:       0.95 MB

     Dynamical RAM for                hpsi:       0.95 MB

     Dynamical RAM for      wfcinit/wfcrot:       1.81 MB

     Estimated static dynamical RAM per process >      22.74 MB

     Estimated max dynamical RAM per process >      27.14 MB

     Estimated total dynamical RAM >     434.27 MB

     Initial potential from superposition of free atoms

     starting charge      47.9995, renormalised to      48.0000
     Starting wfcs are   48 randomized atomic wfcs

     total cpu time spent up to now is        1.8 secs

     Self-consistent Calculation

     iteration #  1     ecut=    70.00 Ry     beta= 0.70
     Davidson diagonalization with overlap

---- Real-time Memory Report at c_bands before calling an iterative solver
           145 MiB given to the printing process from OS
             0 MiB allocation reported by mallinfo(arena+hblkhd)
        120765 MiB available memory on the node where the printing process lives
------------------
     ethr =  1.00E-02,  avg # of iterations =  2.2

     total cpu time spent up to now is        3.5 secs

     total energy              =    -144.42940147 Ry
     estimated scf accuracy    <       1.04709813 Ry

     iteration #  2     ecut=    70.00 Ry     beta= 0.70
     Davidson diagonalization with overlap

---- Real-time Memory Report at c_bands before calling an iterative solver
           148 MiB given to the printing process from OS
             0 MiB allocation reported by mallinfo(arena+hblkhd)
        120724 MiB available memory on the node where the printing process lives
------------------
     ethr =  2.18E-03,  avg # of iterations =  2.0

     total cpu time spent up to now is        4.9 secs

     total energy              =    -144.55629975 Ry
     estimated scf accuracy    <       0.01684282 Ry

     iteration #  3     ecut=    70.00 Ry     beta= 0.70
     Davidson diagonalization with overlap

---- Real-time Memory Report at c_bands before calling an iterative solver
           151 MiB given to the printing process from OS
             0 MiB allocation reported by mallinfo(arena+hblkhd)
        120703 MiB available memory on the node where the printing process lives
------------------
     ethr =  3.51E-05,  avg # of iterations =  3.7

     total cpu time spent up to now is        6.9 secs

     total energy              =    -144.56577905 Ry
     estimated scf accuracy    <       0.00137378 Ry

     iteration #  4     ecut=    70.00 Ry     beta= 0.70
     Davidson diagonalization with overlap

---- Real-time Memory Report at c_bands before calling an iterative solver
           151 MiB given to the printing process from OS
             0 MiB allocation reported by mallinfo(arena+hblkhd)
        120697 MiB available memory on the node where the printing process lives
------------------
     ethr =  2.86E-06,  avg # of iterations =  4.0

     total cpu time spent up to now is        8.8 secs

     total energy              =    -144.56629503 Ry
     estimated scf accuracy    <       0.00013845 Ry

     iteration #  5     ecut=    70.00 Ry     beta= 0.70
     Davidson diagonalization with overlap

---- Real-time Memory Report at c_bands before calling an iterative solver
           151 MiB given to the printing process from OS
             0 MiB allocation reported by mallinfo(arena+hblkhd)
        120692 MiB available memory on the node where the printing process lives
------------------
     ethr =  2.88E-07,  avg # of iterations =  4.2

     total cpu time spent up to now is       10.6 secs

     total energy              =    -144.56635614 Ry
     estimated scf accuracy    <       0.00000843 Ry

     iteration #  6     ecut=    70.00 Ry     beta= 0.70
     Davidson diagonalization with overlap

---- Real-time Memory Report at c_bands before calling an iterative solver
           152 MiB given to the printing process from OS
             0 MiB allocation reported by mallinfo(arena+hblkhd)
        120688 MiB available memory on the node where the printing process lives
------------------
     ethr =  1.76E-08,  avg # of iterations =  4.8

     total cpu time spent up to now is       12.6 secs

     total energy              =    -144.56635847 Ry
     estimated scf accuracy    <       0.00000266 Ry

     iteration #  7     ecut=    70.00 Ry     beta= 0.70
     Davidson diagonalization with overlap

---- Real-time Memory Report at c_bands before calling an iterative solver
           152 MiB given to the printing process from OS
             0 MiB allocation reported by mallinfo(arena+hblkhd)
        120672 MiB available memory on the node where the printing process lives
------------------
     ethr =  5.55E-09,  avg # of iterations =  2.2

     total cpu time spent up to now is       14.2 secs

     End of self-consistent calculation

          k = 0.0000 0.0000 0.0000 ( 19149 PWs)   bands (ev):

   -19.6289 -17.6827 -17.6827 -14.3822 -13.3530 -12.7037 -12.7036 -12.7036
   -12.7035 -10.6745 -10.6745  -7.8689  -7.8689  -7.7128  -6.5296  -6.5207
    -6.5207  -5.4168  -5.4168  -3.1306  -3.1302  -2.4410  -0.0715  -0.0714
    -0.0696  -0.0695

     occupation numbers 
     1.0000   1.0000   1.0000   1.0000   1.0000   1.0000   1.0000   1.0000
     1.0000   1.0000   1.0000   1.0000   1.0000   1.0000   1.0000   1.0000
     1.0000   1.0000   1.0000   1.0000   1.0000   1.0000   1.0000   1.0000
     0.0000   0.0000

          k =-0.0000 0.1732 0.0000 ( 19205 PWs)   bands (ev):

   -19.5700 -17.6250 -17.6250 -15.0399 -13.3962 -13.3962 -12.6072 -12.2618
   -12.2618 -10.3062 -10.3062  -8.1992  -8.1992  -7.6423  -6.4705  -6.2830
    -6.2829  -5.3523  -5.3523  -3.3736  -3.2586  -2.7929  -0.8849  -0.8848
     0.7213   0.7213

     occupation numbers 
     1.0000   1.0000   1.0000   1.0000   1.0000   1.0000   1.0000   1.0000
     1.0000   1.0000   1.0000   1.0000   1.0000   1.0000   1.0000   1.0000
     1.0000   1.0000   1.0000   1.0000   1.0000   1.0000   1.0000   1.0000
     0.0000   0.0000

          k =-0.0000 0.3464 0.0000 ( 19177 PWs)   bands (ev):

   -19.3930 -17.4522 -17.4522 -15.9468 -14.1873 -14.1873 -11.9630 -11.9630
   -11.4388  -9.4711  -9.4711  -8.8363  -8.8363  -7.4304  -6.2948  -5.9510
    -5.9510  -5.1595  -5.1594  -4.0502  -3.6059  -3.5638  -1.6988  -1.6987
     1.4813   1.4814

     occupation numbers 
     1.0000   1.0000   1.0000   1.0000   1.0000   1.0000   1.0000   1.0000
     1.0000   1.0000   1.0000   1.0000   1.0000   1.0000   1.0000   1.0000
     1.0000   1.0000   1.0000   1.0000   1.0000   1.0000   1.0000   1.0000
     0.0000   0.0000

          k =-0.0000 0.5196 0.0000 ( 19154 PWs)   bands (ev):

   -19.0989 -17.1656 -17.1656 -16.7867 -14.9559 -14.9559 -11.6385 -11.6385
   -10.1734  -9.5162  -9.5162  -8.4899  -8.4899  -7.0795  -6.0084  -5.8501
    -5.8501  -5.0453  -4.8416  -4.8416  -4.4274  -4.0905  -2.4830  -2.4830
     2.2161   2.2161

     occupation numbers 
     1.0000   1.0000   1.0000   1.0000   1.0000   1.0000   1.0000   1.0000
     1.0000   1.0000   1.0000   1.0000   1.0000   1.0000   1.0000   1.0000
     1.0000   1.0000   1.0000   1.0000   1.0000   1.0000   1.0000   1.0000
     0.0000   0.0000

          k =-0.0000 0.6927 0.0000 ( 19180 PWs)   bands (ev):

   -18.6888 -17.5289 -16.7675 -16.7675 -15.6543 -15.6543 -11.2336 -11.2336
   -10.1614 -10.1614  -8.8582  -7.5218  -7.5217  -6.5937  -6.2368  -6.0971
    -6.0971  -5.6216  -5.2499  -4.6271  -4.4043  -4.4043  -3.2100  -3.2099
     2.9400   2.9400

     occupation numbers 
     1.0000   1.0000   1.0000   1.0000   1.0000   1.0000   1.0000   1.0000
     1.0000   1.0000   1.0000   1.0000   1.0000   1.0000   1.0000   1.0000
     1.0000   1.0000   1.0000   1.0000   1.0000   1.0000   1.0000   1.0000
     0.0000   0.0000

          k = 0.0000-0.8659 0.0000 ( 19174 PWs)   bands (ev):

   -18.1648 -18.1643 -16.2619 -16.2619 -16.2614 -16.2613 -10.7394 -10.7394
   -10.7389 -10.7389  -7.5306  -7.5300  -6.6852  -6.6851  -6.6846  -6.6846
    -5.9800  -5.9795  -5.1523  -5.1518  -3.8565  -3.8564  -3.8560  -3.8560
     3.6637   3.6638

     occupation numbers 
     1.0000   1.0000   1.0000   1.0000   1.0000   1.0000   1.0000   1.0000
     1.0000   1.0000   1.0000   1.0000   1.0000   1.0000   1.0000   1.0000
     1.0000   1.0000   1.0000   1.0000   1.0000   1.0000   1.0000   1.0000
     0.0000   0.0000

          k = 0.1000-0.0000 0.0000 ( 19191 PWs)   bands (ev):

   -19.6093 -18.0485 -17.2810 -14.3654 -13.3362 -13.1285 -13.0213 -12.4936
   -12.3534 -10.5598 -10.5282  -8.4672  -7.6894  -7.2560  -7.0477  -6.6176
    -5.9991  -5.8414  -4.9552  -3.2124  -3.1747  -2.4169  -0.5617  -0.5152
     0.3643   0.4150

     occupation numbers 
     1.0000   1.0000   1.0000   1.0000   1.0000   1.0000   1.0000   1.0000
     1.0000   1.0000   1.0000   1.0000   1.0000   1.0000   1.0000   1.0000
     1.0000   1.0000   1.0000   1.0000   1.0000   1.0000   1.0000   1.0000
     0.0000   0.0000

          k = 0.1000 0.1732 0.0000 ( 19197 PWs)   bands (ev):

   -19.5503 -17.9905 -17.2236 -15.0222 -13.6613 -13.3060 -12.5917 -12.5059
   -11.9710 -10.2872 -10.1195  -8.8139  -7.6187  -7.5700  -6.7669  -6.5586
    -5.8072  -5.7751  -4.8931  -3.4486  -3.3040  -2.7696  -1.0989  -0.9135
     0.7272   0.9440

     occupation numbers 
     1.0000   1.0000   1.0000   1.0000   1.0000   1.0000   1.0000   1.0000
     1.0000   1.0000   1.0000   1.0000   1.0000   1.0000   1.0000   1.0000
     1.0000   1.0000   1.0000   1.0000   1.0000   1.0000   1.0000   1.0000
     0.0000   0.0000

          k = 0.1000 0.3464 0.0000 ( 19165 PWs)   bands (ev):

   -19.3734 -17.8169 -17.0519 -15.9285 -14.5001 -13.8907 -12.4792 -11.4610
   -11.4253  -9.5957  -9.4706  -9.2418  -8.1873  -7.4069  -6.3826  -6.3359
    -5.5820  -5.5768  -4.7080  -4.1032  -3.6619  -3.5414  -1.9524  -1.5453
     1.2621   1.7925

     occupation numbers 
     1.0000   1.0000   1.0000   1.0000   1.0000   1.0000   1.0000   1.0000
     1.0000   1.0000   1.0000   1.0000   1.0000   1.0000   1.0000   1.0000
     1.0000   1.0000   1.0000   1.0000   1.0000   1.0000   1.0000   1.0000
     0.0000   0.0000

          k = 0.1000 0.5196 0.0000 ( 19156 PWs)   bands (ev):

   -19.0793 -17.5286 -16.7679 -16.7674 -15.2922 -14.6010 -12.2379 -11.0415
   -10.1630 -10.1615  -8.8567  -8.6489  -8.2789  -7.0562  -6.0970  -6.0951
    -5.6233  -5.2493  -5.0756  -4.4051  -4.4042  -4.1574  -2.7855  -2.2207
     1.8347   2.6392

     occupation numbers 
     1.0000   1.0000   1.0000   1.0000   1.0000   1.0000   1.0000   1.0000
     1.0000   1.0000   1.0000   1.0000   1.0000   1.0000   1.0000   1.0000
     1.0000   1.0000   1.0000   1.0000   1.0000   1.0000   1.0000   1.0000
     0.0000   0.0000

          k = 0.1000 0.6927 0.0000 ( 19164 PWs)   bands (ev):

   -18.6693 -17.5098 -17.1278 -16.3728 -16.0030 -15.2768 -11.8648 -10.8099
   -10.5965  -9.4999  -8.8526  -7.6482  -7.3721  -6.5707  -6.2501  -6.1889
    -6.0193  -5.7065  -5.2274  -4.7971  -4.7030  -3.9888  -3.5519  -2.8759
     2.4362   3.4647

     occupation numbers 
     1.0000   1.0000   1.0000   1.0000   1.0000   1.0000   1.0000   1.0000
     1.0000   1.0000   1.0000   1.0000   1.0000   1.0000   1.0000   1.0000
     1.0000   1.0000   1.0000   1.0000   1.0000   1.0000   1.0000   1.0000
     0.0000   0.0000

          k = 0.1000-0.8659 0.0000 ( 19156 PWs)   bands (ev):

   -18.1455 -18.1449 -16.6178 -16.6173 -15.8734 -15.8729 -11.3841 -11.3836
   -10.0845 -10.0840  -7.5323  -7.5317  -6.7307  -6.7302  -6.6377  -6.6372
    -5.9572  -5.9567  -5.2336  -5.2332  -4.2279  -4.2275  -3.4738  -3.4734
     3.0707   3.0712

     occupation numbers 
     1.0000   1.0000   1.0000   1.0000   1.0000   1.0000   1.0000   1.0000
     1.0000   1.0000   1.0000   1.0000   1.0000   1.0000   1.0000   1.0000
     1.0000   1.0000   1.0000   1.0000   1.0000   1.0000   1.0000   1.0000
     0.0000   0.0000

          k = 0.2000-0.0000 0.0000 ( 19205 PWs)   bands (ev):

   -19.5503 -18.3776 -16.8445 -14.3148 -13.6606 -13.3062 -13.2862 -12.5070
   -11.9710 -10.2879 -10.1182  -9.0461  -7.6186  -7.5725  -6.8730  -6.6348
    -6.2265  -5.4916  -4.4596  -3.4482  -3.3043  -2.3446  -1.0976  -0.9151
     0.7285   0.9428

     occupation numbers 
     1.0000   1.0000   1.0000   1.0000   1.0000   1.0000   1.0000   1.0000
     1.0000   1.0000   1.0000   1.0000   1.0000   1.0000   1.0000   1.0000
     1.0000   1.0000   1.0000   1.0000   1.0000   1.0000   1.0000   1.0000
     0.0000   0.0000

          k = 0.2000 0.1732 0.0000 ( 19192 PWs)   bands (ev):

   -19.4913 -18.3193 -16.7876 -14.9693 -13.9351 -13.6562 -12.5454 -12.3357
   -11.8872  -9.9802  -9.8259  -9.4092  -7.5480  -7.2521  -6.9329  -6.8132
    -6.1588  -5.3483  -4.4011  -3.6794  -3.4230  -2.7003  -1.3969  -1.2284
     1.0195   1.2257

     occupation numbers 
     1.0000   1.0000   1.0000   1.0000   1.0000   1.0000   1.0000   1.0000
     1.0000   1.0000   1.0000   1.0000   1.0000   1.0000   1.0000   1.0000
     1.0000   1.0000   1.0000   1.0000   1.0000   1.0000   1.0000   1.0000
     0.0000   0.0000

          k = 0.2000 0.3464 0.0000 ( 19153 PWs)   bands (ev):

   -19.3145 -18.1449 -16.6173 -15.8736 -14.7941 -13.7760 -12.7941 -11.3854
   -11.1122 -10.0847  -9.5171  -8.9546  -7.5306  -7.3365  -6.7301  -6.6353
    -5.9565  -5.2348  -4.2818  -4.2273  -3.8002  -3.4746  -2.2395  -1.5770
     1.2352   2.1151

     occupation numbers 
     1.0000   1.0000   1.0000   1.0000   1.0000   1.0000   1.0000   1.0000
     1.0000   1.0000   1.0000   1.0000   1.0000   1.0000   1.0000   1.0000
     1.0000   1.0000   1.0000   1.0000   1.0000   1.0000   1.0000   1.0000
     0.0000   0.0000

          k = 0.2000 0.5196 0.0000 ( 19137 PWs)   bands (ev):

   -19.0206 -17.8553 -16.7116 -16.3356 -15.5998 -14.2637 -12.7816 -10.7860
   -10.5068 -10.1328  -8.7113  -8.1911  -8.0361  -6.9863  -6.3607  -6.3447
    -5.6220  -5.4185  -5.1806  -4.3385  -4.3357  -3.9443  -3.0928  -2.0559
     1.5670   3.0528

     occupation numbers 
     1.0000   1.0000   1.0000   1.0000   1.0000   1.0000   1.0000   1.0000
     1.0000   1.0000   1.0000   1.0000   1.0000   1.0000   1.0000   1.0000
     1.0000   1.0000   1.0000   1.0000   1.0000   1.0000   1.0000   1.0000
     0.0000   0.0000

          k = 0.2000 0.6927 0.0000 ( 19171 PWs)   bands (ev):

   -18.6109 -17.4526 -17.4523 -16.3189 -15.9463 -14.8809 -12.4679 -11.4374
    -9.9806  -8.8376  -8.8360  -7.7317  -7.2099  -6.5015  -6.2973  -6.2968
    -5.9513  -5.9495  -5.1601  -5.1597  -4.9134  -3.8816  -3.5626  -2.5838
     2.0008   3.1048

     occupation numbers 
     1.0000   1.0000   1.0000   1.0000   1.0000   1.0000   1.0000   1.0000
     1.0000   1.0000   1.0000   1.0000   1.0000   1.0000   1.0000   1.0000
     1.0000   1.0000   1.0000   1.0000   1.0000   1.0000   1.0000   1.0000
     0.0000   0.0000

          k = 0.2000-0.8659 0.0000 ( 19164 PWs)   bands (ev):

   -18.0876 -18.0870 -16.9390 -16.9385 -15.4566 -15.4560 -12.0063 -12.0058
    -9.4345  -9.4339  -7.5414  -7.5408  -6.7640  -6.7635  -6.5949  -6.5944
    -5.8890  -5.8885  -5.4646  -5.4642  -4.5763  -4.5758  -3.1002  -3.0997
     2.5213   2.5218

     occupation numbers 
     1.0000   1.0000   1.0000   1.0000   1.0000   1.0000   1.0000   1.0000
     1.0000   1.0000   1.0000   1.0000   1.0000   1.0000   1.0000   1.0000
     1.0000   1.0000   1.0000   1.0000   1.0000   1.0000   1.0000   1.0000
     0.0000   0.0000

          k = 0.3000-0.0000 0.0000 ( 19189 PWs)   bands (ev):

   -19.4519 -18.6692 -16.3748 -14.2306 -14.2267 -13.5579 -13.2041 -12.6349
   -11.5569  -9.9297  -9.6024  -9.5622  -8.0884  -7.5008  -7.2684  -6.5698
    -6.0137  -5.0078  -3.9342  -3.8143  -3.5154  -2.2245  -1.6613  -1.2700
     1.0184   1.5099

     occupation numbers 
     1.0000   1.0000   1.0000   1.0000   1.0000   1.0000   1.0000   1.0000
     1.0000   1.0000   1.0000   1.0000   1.0000   1.0000   1.0000   1.0000
     1.0000   1.0000   1.0000   1.0000   1.0000   1.0000   1.0000   1.0000
     0.0000   0.0000

          k = 0.3000 0.1732 0.0000 ( 19168 PWs)   bands (ev):

   -19.3930 -18.6107 -16.3185 -14.8813 -14.1874 -14.1867 -12.4695 -11.9644
   -11.9636  -9.9811  -9.4712  -9.4697  -7.7314  -7.4304  -7.2078  -6.5012
    -6.2963  -4.9144  -4.0495  -3.8810  -3.6065  -2.5852  -1.6995  -1.6979
     1.4806   1.4818

     occupation numbers 
     1.0000   1.0000   1.0000   1.0000   1.0000   1.0000   1.0000   1.0000
     1.0000   1.0000   1.0000   1.0000   1.0000   1.0000   1.0000   1.0000
     1.0000   1.0000   1.0000   1.0000   1.0000   1.0000   1.0000   1.0000
     0.0000   0.0000

          k = 0.3000 0.3464 0.0000 ( 19161 PWs)   bands (ev):

   -19.2164 -18.4357 -16.1503 -15.7822 -15.0595 -14.0931 -12.6367 -11.3207
   -11.0007 -10.6739  -9.1679  -8.6302  -7.2194  -7.1274  -7.0266  -6.8761
    -6.2961  -4.9156  -4.6122  -3.9699  -3.7244  -3.3640  -2.5235  -1.8219
     1.4418   2.4042

     occupation numbers 
     1.0000   1.0000   1.0000   1.0000   1.0000   1.0000   1.0000   1.0000
     1.0000   1.0000   1.0000   1.0000   1.0000   1.0000   1.0000   1.0000
     1.0000   1.0000   1.0000   1.0000   1.0000   1.0000   1.0000   1.0000
     0.0000   0.0000

          k = 0.3000 0.5196 0.0000 ( 19143 PWs)   bands (ev):

   -18.9229 -18.1450 -16.6178 -15.8746 -15.8729 -14.1125 -13.0901 -11.3841
   -10.1335 -10.0858  -8.5883  -7.7725  -7.5305  -6.8702  -6.7285  -6.6373
    -5.9566  -5.4038  -5.2350  -4.5570  -4.2283  -3.4734  -3.3850  -2.0548
     1.4926   3.0718

     occupation numbers 
     1.0000   1.0000   1.0000   1.0000   1.0000   1.0000   1.0000   1.0000
     1.0000   1.0000   1.0000   1.0000   1.0000   1.0000   1.0000   1.0000
     1.0000   1.0000   1.0000   1.0000   1.0000   1.0000   1.0000   1.0000
     0.0000   0.0000

          k = 0.3000 0.6927 0.0000 ( 19161 PWs)   bands (ev):

   -18.5137 -17.7402 -17.3573 -16.5999 -15.4922 -14.5033 -12.9994 -12.0353
    -9.4354  -8.8196  -8.1846  -7.7311  -7.0422  -6.4212  -6.4063  -6.3867
    -6.3186  -5.8855  -5.4869  -5.2060  -5.0486  -4.1869  -3.1451  -2.3861
     1.6977   2.5349

     occupation numbers 
     1.0000   1.0000   1.0000   1.0000   1.0000   1.0000   1.0000   1.0000
     1.0000   1.0000   1.0000   1.0000   1.0000   1.0000   1.0000   1.0000
     1.0000   1.0000   1.0000   1.0000   1.0000   1.0000   1.0000   1.0000
     0.0000   0.0000

          k = 0.3000-0.8659 0.0000 ( 19144 PWs)   bands (ev):

   -17.9911 -17.9906 -17.2242 -17.2236 -15.0220 -15.0214 -12.5904 -12.5900
    -8.8138  -8.8132  -7.5713  -7.5707  -6.7675  -6.7670  -6.5610  -6.5604
    -5.8064  -5.8060  -5.7758  -5.7754  -4.8938  -4.8933  -2.7683  -2.7678
     2.0578   2.0583

     occupation numbers 
     1.0000   1.0000   1.0000   1.0000   1.0000   1.0000   1.0000   1.0000
     1.0000   1.0000   1.0000   1.0000   1.0000   1.0000   1.0000   1.0000
     1.0000   1.0000   1.0000   1.0000   1.0000   1.0000   1.0000   1.0000
     0.0000   0.0000

          k = 0.4000-0.0000 0.0000 ( 19140 PWs)   bands (ev):

   -19.3144 -18.9228 -15.8740 -14.7934 -14.1127 -13.7762 -13.0917 -12.7956
   -11.1121 -10.1334  -9.5178  -8.9529  -8.5888  -7.7705  -7.3364  -6.8700
    -5.4034  -4.5572  -4.2815  -3.8005  -3.3841  -2.2384  -2.0566  -1.5787
     1.2364   1.4936

     occupation numbers 
     1.0000   1.0000   1.0000   1.0000   1.0000   1.0000   1.0000   1.0000
     1.0000   1.0000   1.0000   1.0000   1.0000   1.0000   1.0000   1.0000
     1.0000   1.0000   1.0000   1.0000   1.0000   1.0000   1.0000   1.0000
     0.0000   0.0000

          k = 0.4000 0.1732 0.0000 ( 19127 PWs)   bands (ev):

   -19.2556 -18.8642 -15.8187 -14.7585 -14.7435 -14.4104 -12.3660 -12.0987
   -11.5238 -10.5265  -9.0753  -8.8786  -8.1989  -7.7078  -7.2662  -6.8008
    -5.6717  -4.5251  -4.5147  -3.8532  -3.3392  -2.4251  -2.2304  -1.9783
     1.6858   2.0303

     occupation numbers 
     1.0000   1.0000   1.0000   1.0000   1.0000   1.0000   1.0000   1.0000
     1.0000   1.0000   1.0000   1.0000   1.0000   1.0000   1.0000   1.0000
     1.0000   1.0000   1.0000   1.0000   1.0000   1.0000   1.0000   1.0000
     0.0000   0.0000

          k = 0.4000 0.3464 0.0000 ( 19142 PWs)   bands (ev):

   -19.0793 -18.6886 -15.6546 -15.6539 -15.2924 -14.6005 -12.2384 -11.2351
   -11.2341 -11.0429  -8.6474  -8.2787  -7.5215  -7.5198  -7.0561  -6.5935
    -6.2355  -5.0746  -4.6284  -4.1585  -3.2107  -3.2094  -2.7860  -2.2202
     1.8341   2.6392

     occupation numbers 
     1.0000   1.0000   1.0000   1.0000   1.0000   1.0000   1.0000   1.0000
     1.0000   1.0000   1.0000   1.0000   1.0000   1.0000   1.0000   1.0000
     1.0000   1.0000   1.0000   1.0000   1.0000   1.0000   1.0000   1.0000
     0.0000   0.0000

          k = 0.4000 0.5196 0.0000 ( 19155 PWs)   bands (ev):

   -18.7862 -18.3970 -16.4869 -16.1147 -15.3841 -14.4002 -12.9047 -11.9489
   -10.0298  -9.9855  -8.2289  -7.4950  -7.2066  -6.9221  -6.8911  -6.7084
    -6.2504  -5.7836  -5.0697  -4.7521  -4.0755  -3.6503  -3.0096  -2.2440
     1.6481   2.4905

     occupation numbers 
     1.0000   1.0000   1.0000   1.0000   1.0000   1.0000   1.0000   1.0000
     1.0000   1.0000   1.0000   1.0000   1.0000   1.0000   1.0000   1.0000
     1.0000   1.0000   1.0000   1.0000   1.0000   1.0000   1.0000   1.0000
     0.0000   0.0000

          k = 0.4000 0.6927 0.0000 ( 19150 PWs)   bands (ev):

   -18.3778 -17.9907 -17.2240 -16.8450 -15.0216 -14.3146 -13.2845 -12.5903
    -9.0463  -8.8148  -7.5720  -7.5697  -6.8751  -6.7657  -6.6352  -6.5607
    -6.2268  -5.8076  -5.7754  -5.4914  -4.8938  -4.4603  -2.7680  -2.3428
     1.5952   2.0579

     occupation numbers 
     1.0000   1.0000   1.0000   1.0000   1.0000   1.0000   1.0000   1.0000
     1.0000   1.0000   1.0000   1.0000   1.0000   1.0000   1.0000   1.0000
     1.0000   1.0000   1.0000   1.0000   1.0000   1.0000   1.0000   1.0000
     0.0000   0.0000

          k = 0.4000-0.8659 0.0000 ( 19162 PWs)   bands (ev):

   -17.8563 -17.8558 -17.4725 -17.4719 -14.6066 -14.6060 -13.0967 -13.0963
    -8.2679  -8.2673  -7.6572  -7.6566  -6.7060  -6.7055  -6.5393  -6.5388
    -6.1923  -6.1918  -5.6183  -5.6179  -5.1753  -5.1749  -2.5287  -2.5282
     1.7367   1.7372

     occupation numbers 
     1.0000   1.0000   1.0000   1.0000   1.0000   1.0000   1.0000   1.0000
     1.0000   1.0000   1.0000   1.0000   1.0000   1.0000   1.0000   1.0000
     1.0000   1.0000   1.0000   1.0000   1.0000   1.0000   1.0000   1.0000
     0.0000   0.0000

          k =-0.5000 0.0000 0.0000 ( 19126 PWs)   bands (ev):

   -19.1380 -19.1379 -15.3454 -15.3451 -13.9613 -13.9612 -12.9531 -12.9530
   -10.6374 -10.6370  -9.0679  -9.0676  -8.3434  -8.3434  -7.1259  -7.1258
    -4.8195  -4.8194  -4.1512  -4.1512  -2.8162  -2.8158  -1.8412  -1.8411
     1.3905   1.3906

     occupation numbers 
     1.0000   1.0000   1.0000   1.0000   1.0000   1.0000   1.0000   1.0000
     1.0000   1.0000   1.0000   1.0000   1.0000   1.0000   1.0000   1.0000
     1.0000   1.0000   1.0000   1.0000   1.0000   1.0000   1.0000   1.0000
     0.0000   0.0000

          k =-0.5000 0.1732 0.0000 ( 19118 PWs)   bands (ev):

   -19.0792 -19.0792 -15.2918 -15.2915 -14.6013 -14.6012 -12.2395 -12.2394
   -11.0423 -11.0419  -8.6490  -8.6487  -8.2770  -8.2769  -7.0561  -7.0560
    -5.0746  -5.0745  -4.1584  -4.1584  -2.7849  -2.7845  -2.2219  -2.2219
     1.8350   1.8351

     occupation numbers 
     1.0000   1.0000   1.0000   1.0000   1.0000   1.0000   1.0000   1.0000
     1.0000   1.0000   1.0000   1.0000   1.0000   1.0000   1.0000   1.0000
     1.0000   1.0000   1.0000   1.0000   1.0000   1.0000   1.0000   1.0000
     0.0000   0.0000

          k =-0.5000 0.3464 0.0000 ( 19136 PWs)   bands (ev):

   -18.9033 -18.9032 -15.4911 -15.4910 -15.1335 -15.1331 -11.7594 -11.7591
   -11.1365 -11.1364  -8.0753  -8.0752  -7.9074  -7.9070  -6.8472  -6.8472
    -5.6271  -5.6270  -4.3763  -4.3763  -3.0169  -3.0168  -2.6990  -2.6986
     2.3474   2.3478

     occupation numbers 
     1.0000   1.0000   1.0000   1.0000   1.0000   1.0000   1.0000   1.0000
     1.0000   1.0000   1.0000   1.0000   1.0000   1.0000   1.0000   1.0000
     1.0000   1.0000   1.0000   1.0000   1.0000   1.0000   1.0000   1.0000
     0.0000   0.0000

          k =-0.5000 0.5196 0.0000 ( 19162 PWs)   bands (ev):

   -18.6109 -18.6108 -16.3191 -16.3190 -14.8809 -14.8804 -12.4684 -12.4681
    -9.9820  -9.9820  -7.7301  -7.7301  -7.2100  -7.2096  -6.5014  -6.5013
    -6.2962  -6.2961  -4.9146  -4.9146  -3.8820  -3.8819  -2.5838  -2.5833
     2.0002   2.0007

     occupation numbers 
     1.0000   1.0000   1.0000   1.0000   1.0000   1.0000   1.0000   1.0000
     1.0000   1.0000   1.0000   1.0000   1.0000   1.0000   1.0000   1.0000
     1.0000   1.0000   1.0000   1.0000   1.0000   1.0000   1.0000   1.0000
     0.0000   0.0000

          k =-0.5000 0.6927 0.0000 ( 19192 PWs)   bands (ev):

   -18.2034 -18.2034 -17.0532 -17.0531 -14.5721 -14.5716 -13.0642 -13.0639
    -8.8630  -8.8630  -7.2200  -7.2199  -7.0330  -7.0330  -6.7133  -6.7128
    -6.0227  -6.0226  -5.6905  -5.6905  -4.6970  -4.6970  -2.4812  -2.4807
     1.7247   1.7252

     occupation numbers 
     1.0000   1.0000   1.0000   1.0000   1.0000   1.0000   1.0000   1.0000
     1.0000   1.0000   1.0000   1.0000   1.0000   1.0000   1.0000   1.0000
     1.0000   1.0000   1.0000   1.0000   1.0000   1.0000   1.0000   1.0000
     0.0000   0.0000

          k =-0.5000-0.8659 0.0000 ( 19152 PWs)   bands (ev):

   -17.6834 -17.6833 -17.6828 -17.6827 -14.3823 -14.3816 -13.3515 -13.3511
    -7.8695  -7.8694  -7.8689  -7.8688  -6.5320  -6.5315  -6.5206  -6.5206
    -6.5202  -6.5202  -5.4175  -5.4175  -5.4171  -5.4170  -2.4393  -2.4389
     1.6199   1.6203

     occupation numbers 
     1.0000   1.0000   1.0000   1.0000   1.0000   1.0000   1.0000   1.0000
     1.0000   1.0000   1.0000   1.0000   1.0000   1.0000   1.0000   1.0000
     1.0000   1.0000   1.0000   1.0000   1.0000   1.0000   1.0000   1.0000
     0.0000   0.0000

     highest occupied, lowest unoccupied level (ev):    -0.0714   -0.0696

!    total energy              =    -144.56635916 Ry
     estimated scf accuracy    <       0.00000009 Ry

     The total energy is the sum of the following terms:
     one-electron contribution =    -471.51106668 Ry
     hartree contribution      =     247.62487910 Ry
     xc contribution           =     -51.48534235 Ry
     ewald contribution        =     130.80517077 Ry

     convergence has been achieved in   7 iterations

     Writing all to output data dir /mnt/dalessandro-jobid_50293/gs_converged_from_AGSL5.save/

     init_run     :      2.93s CPU      1.78s WALL (       1 calls)
     electrons    :     24.20s CPU     12.39s WALL (       1 calls)

     Called by init_run:
     wfcinit      :      2.03s CPU      1.11s WALL (       1 calls)
     wfcinit:atom :      0.03s CPU      0.02s WALL (      36 calls)
     wfcinit:wfcr :      1.72s CPU      0.89s WALL (      36 calls)
     potinit      :      0.28s CPU      0.16s WALL (       1 calls)
     hinit0       :      0.54s CPU      0.42s WALL (       1 calls)

     Called by electrons:
     c_bands      :     21.12s CPU     10.81s WALL (       7 calls)
     sum_band     :      2.89s CPU      1.48s WALL (       7 calls)
     v_of_rho     :      0.17s CPU      0.09s WALL (       8 calls)
     v_h          :      0.01s CPU      0.00s WALL (       8 calls)
     v_xc         :      0.16s CPU      0.08s WALL (       8 calls)
     mix_rho      :      0.03s CPU      0.01s WALL (       7 calls)

     Called by c_bands:
     init_us_2    :      0.39s CPU      0.20s WALL (     540 calls)
     init_us_2:cp :      0.39s CPU      0.20s WALL (     540 calls)
     cegterg      :     20.05s CPU     10.22s WALL (     252 calls)

     Called by sum_band:
     sum_band:wei :      0.00s CPU      0.00s WALL (       7 calls)
     sum_band:loo :      2.87s CPU      1.46s WALL (       7 calls)
     sum_band:buf :      0.06s CPU      0.03s WALL (     252 calls)
     sum_band:ini :      0.17s CPU      0.08s WALL (     252 calls)

     Called by *egterg:
     cdiaghg      :      1.66s CPU      0.83s WALL (    1082 calls)
     cegterg:over :      0.75s CPU      0.38s WALL (     830 calls)
     cegterg:upda :      0.41s CPU      0.21s WALL (     830 calls)
     cegterg:last :      0.58s CPU      0.29s WALL (     645 calls)
     h_psi        :     17.66s CPU      9.04s WALL (    1118 calls)
     g_psi        :      0.16s CPU      0.08s WALL (     830 calls)

     Called by h_psi:
     h_psi:calbec :      1.06s CPU      0.54s WALL (    1118 calls)
     vloc_psi     :     15.64s CPU      8.01s WALL (    1118 calls)
     add_vuspsi   :      0.80s CPU      0.41s WALL (    1118 calls)

     General routines
     calbec       :      1.05s CPU      0.54s WALL (    1118 calls)
     fft          :      0.07s CPU      0.04s WALL (      80 calls)
     ffts         :      0.01s CPU      0.00s WALL (       7 calls)
     fftw         :     16.05s CPU      8.22s WALL (   50404 calls)

     Parallel routines

     PWSCF        :     27.46s CPU     14.63s WALL


   This run was terminated on:  12:51:26  21Jan2026            

=------------------------------------------------------------------------------=
   JOB DONE.
=------------------------------------------------------------------------------=
